146
Lattice="7.6933218 0.0 0.0 3.8466609 6.6626121 0.0 0.0 0.0 66.5341384" Properties=species:S:1:pos:R:3:frac_pos:R:3:dft_force:R:3 config_type=111adatom kpoints_mp_grid="6 6 1" castep_file_name=CASTEP000/castep.castep castep_run_time=2014.62 dft_energy=-23805.61189933 dft_virial="5.66316604 -5.80643953 6.10824829 -5.80643953 5.65448151 -0.43441815 6.10824829 -0.43441815 9.56260588" cutoff=-1.0 nneightol=1.2 pbc="T T T"
Si       3.92892944       2.10465920      57.12448134       0.35274800       0.31589100       0.85857400      -0.58367325       0.10925210       0.18147731
Si       6.16314317       3.08478940      -0.19408008       0.56960300       0.46300000      -0.00291700      -0.94501408       1.49725218      -1.57066774
Si      -0.02338770      -0.10053882       1.69921536       0.00450500      -0.01509000       0.02553900       0.56382388       0.24352490       0.50014584
Si      -0.02112971      -0.14802325       4.22498432       0.00836200      -0.02221700       0.06350100      -0.63812921       0.17754985       0.09329199
Si       1.94855685       1.32126261       8.56839941       0.15412400       0.19831000       0.12878200      -1.08080522      -0.61997655      -0.64432559
Si       1.95894668       1.09247517      10.81751943       0.17264400       0.16397100       0.16258600      -0.66916833       0.76252022       0.33998916
Si       3.61729990       2.09577794       5.18859825       0.31290800       0.31455800       0.07798400       1.15637169       0.43962769       0.31729777
Si       3.78860325       2.25563399       7.68462645       0.32317800       0.33855100       0.11549900       0.95226678      -0.08010203      -1.38056097
Si       0.01009748       0.01884853      11.49370587      -0.00010200       0.00282900       0.17274900      -0.37139606      -0.49125203      -0.02033270
Si       0.02764595       0.04379335      13.85686540       0.00030700       0.00657300       0.20826700       0.40017123       0.13681228      -0.17901603
Si       2.00000210       1.02654862      17.73327737       0.18292800       0.15407600       0.26652900       0.67464871       0.57064206      -0.40945105
Si       2.06222184       1.33228923      20.01825929       0.16807100       0.19996500       0.30087200      -0.85830189      -0.96882020       0.56333326
Si       4.05523070       2.23472671      14.64256704       0.35940400       0.33541300       0.22007600      -0.71505054      -0.20909091      -0.33484169
Si       3.91950896       2.27104461      16.95136818       0.33903700       0.34086400       0.25477700      -0.47200784      -0.34194660       0.47294881
Si       0.11685386       0.10229775      20.90429441       0.00751200       0.01535400       0.31418900       0.68541398      -0.03694297      -0.15535700
Si       0.11880028      -0.01713624      23.27177866       0.01672800      -0.00257200       0.34977200      -0.56558792       1.23850246      -0.24311459
Si       2.01425013       1.07734438      27.22749932       0.18096800       0.16170000       0.40922600      -1.37762351       0.77480166      -0.12721900
Si       1.94229449       0.79175817      29.61387926       0.19304700       0.11883600       0.44509300       0.06678255       0.87414203      -0.39462258
Si       3.92705996       2.09315953      23.91483110       0.35336800       0.31416500       0.35943700      -0.61224830      -0.18200591      -0.12553007
Si       3.71312791       2.30361146      26.21418439       0.30976700       0.34575200       0.39399600       1.22475677      -0.40977056       1.08458667
Si      -0.09248911      -0.06727906      30.35413809      -0.00697300      -0.01009800       0.45621900      -0.00560526      -0.79547071      -0.94002526
Si       0.04451356      -0.04545234      32.63858773       0.00919700      -0.00682200       0.49055400      -0.50300987       0.13349068       0.86211579
Si       1.95997374       1.15701589      36.55791422       0.16793400       0.17365800       0.54946100       0.43915069      -0.26224354       0.50820534
Si       2.03620687       1.24364317      38.91488607       0.17134200       0.18666000       0.58488600      -1.17667284      -0.63633215      -0.09351772
Si       3.91736637       2.32629765      33.56733777       0.33461200       0.34915700       0.50451300       0.21146583      -0.92404584      -0.39540632
Si       3.84671475       2.33699115      35.85651133       0.32462600       0.35076200       0.53891900      -0.15752993       0.14873738      -0.07203440
Si      -0.02781136       0.14349934      39.63917670      -0.01438400       0.02153800       0.59577200       0.52919570      -0.61769102       0.19558011
Si      -0.03909361       0.07478782      42.03533716      -0.01069400       0.01122500       0.63178600      -0.66951360       0.26255408      -0.34782344
Si       1.98343837       1.11454840      46.07562272       0.17417100       0.16728400       0.69251100      -0.32265277       0.62900378       0.13580696
Si       1.81189268       1.08178168      48.47863619       0.15433200       0.16236600       0.72862800       0.18405630       0.18215552      -0.08346092
Si       3.88379656       2.19641003      42.97439999       0.33999600       0.32966200       0.64590000      -0.14984861       0.92938138      -1.66018433
Si       3.88999738       2.31643032      45.20954784       0.33179500       0.34767600       0.67949400      -0.97804718      -0.22403530       0.69905526
Si      -0.18158163      -0.13313898      48.99334429      -0.01361100      -0.01998300       0.73636400       0.04506544       0.36969651       0.20592775
Si      -0.12151986      -0.21042528      51.39283146      -0.00000400      -0.03158300       0.77242800      -0.53954183       0.19607356       0.27857670
Si       2.17039763       1.19040224      55.47150721       0.19278000       0.17866900       0.83373000       0.32075329      -0.41872965      -0.26637331
Si       1.91783357       1.22183645       1.93374820       0.15759200       0.18338700       0.02906400       0.51477606      -0.48781073      -0.56905750
Si       3.74999431       2.19573044      51.78145736       0.32265500       0.32956000       0.77826900       0.89490985       0.09741895       0.33840043
Si       3.80486308       2.34173493      54.07189507       0.31883000       0.35147400       0.81269400      -0.31518022      -0.69317459       0.44460044
Si       2.10941267       3.50963086       1.55683230       0.01080500       0.52676500       0.02339900      -0.33326856       0.04472325       0.21814072
Si       1.86722305       3.25280715       4.08972042      -0.00140200       0.48821800       0.06146800       0.31086596      -0.04923570      -0.35619160
Si       4.01862588       4.44707371       8.46367468       0.18861900       0.66746700       0.12720800      -0.21888759       0.59026945      -1.61132658
Si       3.90879986       4.40313378      10.70687315       0.17764100       0.66087200       0.16092300      -1.16184402       0.84043173       0.92147119
Si       5.81262389       5.69610028       5.26211847       0.32807400       0.85493500       0.07908900       0.00141957       0.35639384      -0.75164280
Si       5.77488046       5.82510177       7.61250345       0.31348700       0.87429700       0.11441500       0.74883934      -0.43832923       0.29805996
Si       1.88693719       3.37625869      11.46616074      -0.00810400       0.50674700       0.17233500       0.34165101      -0.03762301      -0.45623071
Si       2.18444564       3.42287033      13.76511483       0.02706900       0.51374300       0.20688800      -0.24833092      -0.02234196       0.21361999
Si       3.84491836       4.46790104      17.79535372       0.16447700       0.67059300       0.26746200       0.52726621       0.25063273      -0.21221569
Si       3.95869875       4.50735036      20.18166713       0.17630600       0.67651400       0.30332800      -0.91741370       0.18186909      -0.39369468
Si       5.85236759       5.52998803      14.61375776       0.34570600       0.83000300       0.21964300      -0.80952515       0.27032282      -0.31758407
Si       5.85695666       5.49912015      16.92515373       0.34861900       0.82537000       0.25438300      -0.59033201      -0.24471790       0.44475534
Si       1.91414847       3.46185993      20.92052874      -0.01099100       0.51959500       0.31443300       0.29094918       0.32072926       0.11032102
Si       1.99112016       3.28462113      23.31575772       0.01231500       0.49299300       0.35043300      -0.40261027       0.07468879      -0.47956103
Si       3.80303592       4.50855630      27.05264761       0.15598200       0.67669500       0.40659800      -0.55369218       0.01540940       0.24748240
Si       3.76725813       4.33558822      29.43343868       0.16431200       0.65073400       0.44238100      -0.22824912       0.43336901       0.27258840
Si       5.77946568       5.48200390      23.98535729       0.33983100       0.82280100       0.36049700       0.65781803      -0.57904285       0.32834877
Si       5.75068111       5.61074555      26.36900933       0.32642800       0.84212400       0.39632300       0.42361639      -0.78831832      -0.12068560
Si       1.99939048       3.03770472      30.40969409       0.03192000       0.45593300       0.45705400       0.12130727       0.27235035      -0.39553889
Si       2.05235900       3.31912013      32.74437701       0.01768600       0.49817100       0.49214400      -1.66847477      -0.16572131       0.06803930
Si       3.71534359       4.56964579      36.57075531       0.13999900       0.68586400       0.54965400       1.89387365      -0.28927816       0.66877299
Si       3.82139603       4.46224448      38.94955036       0.16184400       0.66974400       0.58540700      -0.47639392       1.23405995      -0.40954797
Si       5.80060692       5.55625205      33.43759620       0.33700700       0.83394500       0.50256300       0.41662087      -0.09477586       0.44180914
Si       5.83376129       5.61502295      35.81286494       0.33690600       0.84276600       0.53826300      -0.96483891      -0.66822589      -0.01993984
Si       1.88502540       3.40219624      39.70431362      -0.01029900       0.51064000       0.59675100       0.06496144       0.23502523       0.91375595
Si       1.93297788       3.37489286      42.14225752      -0.00201700       0.50654200       0.63339300       0.17579131      -0.49090197      -0.29355234
Si       3.73256124       4.54150291      45.88866179       0.14434900       0.68164000       0.68970100       0.50653018       0.00852162      -1.05456972
Si       3.75471801       4.29723823      48.09353660       0.16556000       0.64497800       0.72284000       0.85961620       0.96874863       2.04301546
Si       5.65563012       5.64874909      42.84685405       0.31122100       0.84782800       0.64398300       0.79890013      -0.28866907       0.12363378
Si       5.77692303       5.61536940      45.23216945       0.32949200       0.84281800       0.67983400      -0.76297936      -0.17343297      -0.40679053
Si       1.98637338       3.40186977      49.22721179       0.00289900       0.51059100       0.73987900      -1.33922715      -1.08807009      -0.50304807
Si       1.72000365       3.31538241      51.53148860      -0.02523400       0.49761000       0.77451200       0.18171742      -0.02213236       0.64721528
Si       3.68252003       4.07973726      55.62906005       0.17249800       0.61233300       0.83609800       0.25442524       0.89072632      -0.48381382
Si       4.27174770       4.36751546       0.74604729       0.22749100       0.65552600       0.01121300      -0.17086908      -0.40024095       1.50165749
Si       5.59950734       5.59366261      52.42291299       0.30806000       0.83956000       0.78791000       1.29459605      -0.29958987      -0.44685039
Si       5.54773898       5.50166527      54.79365741       0.30823500       0.82575200       0.82354200       0.15547848       0.08856033       0.68013584
Si       3.96586123      -0.09695433       1.61019268       0.52277000      -0.01455200       0.02420100      -0.83652821       2.49050032       1.30267354
Si       3.91001156      -0.05623911       4.13695966       0.51245500      -0.00844100       0.06217800       0.14486672      -0.20919702       0.47258040
Si       5.81863238       1.12649447       8.19141698       0.67178400       0.16907700       0.12311600      -0.17508260       0.16960094       0.63775364
Si       5.69827805       1.01556197      10.62929435       0.66446500       0.15242700       0.15975700       0.89115565       0.81124228      -0.22020042
Si       7.71969835       2.17962691       5.09691421       0.83985700       0.32714300       0.07660600       0.32288847      -0.94755016      -0.17422101
Si       7.73613514       2.33079492       7.49966155       0.83064900       0.34983200       0.11271900       0.35381253      -0.00664279       0.13021872
Si       3.82122678      -0.04521249      11.45917466       0.50008700      -0.00678600       0.17223000       0.31080175      -0.35602420       0.26705411
Si       3.85766620       0.01149301      13.81102338       0.50056800       0.00172500       0.20757800       0.03113483       0.35357072      -0.16106987
Si       5.82390615       1.11701357      17.67419506       0.67318100       0.16765400       0.26564100       0.57591784       0.62171173       0.40815502
Si       5.83206492       1.00256988      20.06057500       0.68283000       0.15047700       0.30150800      -0.17135221       0.45752035      -0.30780340
Si       7.94076596       2.34865738      14.49991785       0.85590700       0.35251300       0.21793200      -0.00261664      -1.08573327       1.01325182
Si       7.86744860       2.19164626      16.93985777       0.85816000       0.32894700       0.25460400      -0.79332946      -0.13000268      -0.86632074
Si       3.82071517      -0.01742273      20.73483196       0.49793500      -0.00261500       0.31164200       0.25341193       0.18479217       0.85146746
Si       3.87387603      -0.14615772      23.14390004       0.51450600      -0.02193700       0.34785000       0.10302791       0.33805191      -0.38624724
Si       5.66544680       1.13884029      27.20274862       0.65094600       0.17093000       0.40885400      -0.25469580       0.50702346      -0.61065661
Si       5.67604820       0.96952999      29.53131040       0.66503000       0.14551800       0.44385200      -0.24436176       0.87618165       0.36633350
Si       7.68572080       2.25887868      24.16094088       0.82949300       0.33903800       0.36313600       0.25926677      -0.46705709      -1.26277862
Si       7.61221111       2.28946007      26.44539052       0.81764300       0.34362800       0.39747100       0.59964950      -1.23356669       0.86280090
Si       3.84669552      -0.22512300      30.46278833       0.51689900      -0.03378900       0.45785200       0.53483681      -0.23053811      -0.17532090
Si       3.92799854       0.02940211      32.81650001       0.50836600       0.00441300       0.49322800      -0.80026377       0.47134831      -0.59545589
Si       5.68606875       1.08225472      36.52770772       0.65787300       0.16243700       0.54900700       0.02597825       0.11461643       0.31552331
Si       5.67283239       1.14055924      38.84003517       0.65177700       0.17118800       0.58376100       1.06742697       0.08689389       0.22483984
Si       7.66569123       2.12203529      33.55210145       0.83715900       0.31849900       0.50428400       0.74642971       0.83227624      -1.11293917
Si       7.67709274       2.06484343      35.85970497       0.84293300       0.30991500       0.53896700      -0.36674481       1.27923861       0.15838174
Si       3.87401451       0.10639525      39.74416757       0.49557100       0.01596900       0.59735000      -0.64087973      -0.89397311       0.24868596
Si       3.79281534       0.06152256      42.08583657       0.48838400       0.00923400       0.63254500       0.11104670      -0.42463518       0.17143153
Si       5.60125757       1.04803555      46.02425836       0.64941700       0.15730100       0.69173900       0.99244072       0.33397109       0.31841293
Si       5.62960361       1.23937910      48.37258078       0.63874200       0.18602000       0.72703400       0.28300670      -0.93022736       0.18676068
Si       7.67746971       2.25606040      42.90241005       0.82863200       0.33861500       0.64481800      -0.01966540       0.14898055      -0.13480831
Si       7.62353183       2.07830191      45.26091219       0.83496100       0.31193500       0.68026600       0.10739012       0.17423554      -0.09325501
Si       3.78632987      -0.04806408      49.15023179       0.49576500      -0.00721400       0.73872200       0.06893042      -0.28014361       0.17499698
Si       3.90624952      -0.17500683      51.54838827       0.52087900      -0.02626700       0.77476600      -1.45734053       0.75021610      -0.13840779
Si       5.43809375       1.28577753      55.43092138       0.61036700       0.19298400       0.83312000       0.72280338      -0.61427988      -0.41762647
Si       5.83537689       1.31289436       1.08883117       0.65997200       0.19705400       0.01636500       0.07835823      -1.09473991       2.23207568
Si       7.64822355       1.91001099      52.39856149       0.85080000       0.28667600       0.78754400      -0.47009292       1.30963239      -0.92551500
Si       7.72966890       1.97086062      54.77642506       0.85682000       0.29580900       0.82328300      -0.61637977       0.41271918       0.37101513
Si       5.89171124       3.38265480       2.75477947       0.51196800       0.50770700       0.04140400      -0.13173232      -0.05306894      -1.95036190
Si       5.79715262       3.38965054       5.42266535       0.49915200       0.50875700       0.08150200      -1.27014137      -0.70130791      -1.28120315
Si       7.80796383       4.59249188       8.25821726       0.67025500       0.68929300       0.12412000      -0.84679442       0.00389675      -0.39411628
Si       7.62309716       4.44783991      10.56908095       0.65708100       0.66758200       0.15885200       0.06580801      -0.47012039       0.84514979
Si       9.56628792       5.32390011       5.16205113       0.84391800       0.79907100       0.07758500       0.51699362       1.22117139      -0.65219431
Si       9.80047648       5.55319391       7.50890979       0.85715100       0.83348600       0.11285800      -0.04866881      -0.22637808       0.13052417
Si       5.70862557       3.30214380      11.49709912       0.49421200       0.49562300       0.17280000       1.20223778      -0.82171840      -0.01341940
Si       5.94111391       3.29841940      13.88261411       0.52471100       0.49506400       0.20865400       0.00527209       0.56931961      -0.84431838
Si       7.78008324       4.40098176      17.62662315       0.68100300       0.66054900       0.26492600       0.28865169       0.27015061       0.63165915
Si       7.63141364       4.44281630      19.99776677       0.65853900       0.66682800       0.30056400       0.70850373      -0.08032101      -0.24300413
Si       9.59881913       5.60841364      14.55401010       0.82679500       0.84177400       0.21874500       0.87546221      -0.10659556       0.26778060
Si       9.68128769       5.62808833      16.88849342       0.83603800       0.84472700       0.25383200      -0.21834418      -0.78684833       0.14609529
Si       5.80413431       3.26999669      20.79937007       0.50903900       0.49079800       0.31261200       0.01089792      -0.51902645      -0.00596242
Si       5.76642165       3.24029477      23.11894974       0.50636600       0.48634000       0.34747500       0.65454982       0.46953768       0.76915623
Si       7.66232541       4.42913130      27.25131854       0.66358400       0.66477400       0.40958400      -0.04015840       0.66670405       0.01516403
Si       7.78284899       4.17270068      29.63330723       0.69849400       0.62628600       0.44538500      -0.20575732       0.82565331      -0.25381825
Si       9.72303935       5.56044949      23.94324118       0.84654100       0.83457500       0.35986400      -0.55582659      -0.39215442       0.64967104
Si       9.50611076       5.63349837      26.34845028       0.81286200       0.84553900       0.39601400       0.45533423      -0.41203436      -0.25008760
Si       5.69801263       3.31836726      30.22692481       0.49161500       0.49805800       0.45430700       0.26504481      -1.11310781       0.73305781
Si       5.78618195       3.33260526      32.66872769       0.50200700       0.50019500       0.49100700       0.51269238      -0.00550634      -0.44691334
Si       7.63190601       4.38290609      36.69690403       0.66309900       0.65783600       0.55155000       0.23175418      -0.29144775      -1.02734766
Si       7.61302660       4.48188586      38.99585812       0.65321700       0.67269200       0.58610300       0.21566165       0.33081347       0.23078292
Si       9.62329928       5.56238831      33.50432994       0.83343100       0.83486600       0.50356600       0.76983353      -0.50920216      -0.34025659
Si       9.53239114       5.54054161      35.81346374       0.82325400       0.83158700       0.53827200      -0.94797372      -0.07259958       0.01349449
Si       5.68794977       3.32684210      39.65035444       0.48967100       0.49933000       0.59594000       0.33994640       0.10388739       0.85322552
Si       5.77230704       3.42089153      42.06407991       0.49357800       0.51344600       0.63221800      -0.35667041      -0.58864104       0.09401763
Si       7.57431765       4.35243797      45.90875510       0.65790000       0.65326300       0.69000300       0.52874656      -0.42045648       0.91046405
Si       7.73238464       4.37543731      48.33558780       0.67672000       0.65671500       0.72647800       0.18309592       0.79296168      -1.01163804
Si       9.57744324       5.59489520      42.88065339       0.82503100       0.83974500       0.64449100       0.01437761       0.27110326      -0.86122672
Si       9.44824159       5.54563184      45.16210900       0.81193400       0.83235100       0.67878100      -0.06203248      -0.11846606       0.40381410
Si       5.77186083       3.46345230      49.09773635       0.49032600       0.51983400       0.73793300      -0.26856369      -0.27632798       0.23936529
Si       5.83263807       3.44181213      51.48504777       0.49985000       0.51658600       0.77381400      -0.47899976      -1.17082894       0.21828175
Si       7.51829873       4.27662411      55.02905519       0.65630800       0.64188400       0.82708000       0.07149247       0.22159222      -0.21958043
Si       7.59528965       4.49601726       0.89688019       0.64985100       0.67481300       0.01348000       0.88555121      -2.16099023       1.32399132
Si       9.54071916       5.49076523      52.60149061       0.82807200       0.82411600       0.79059400       0.46070869      -0.60087353      -0.42139206
Si       9.47055607       5.52838234      55.02752490       0.81612900       0.82976200       0.82705700       0.09749095       0.02133519      -0.02909704
146
Lattice="7.6933218 0.0 0.0 3.8466609 6.6626121 0.0 0.0 0.0 66.5341384" Properties=species:S:1:pos:R:3:frac_pos:R:3:dft_force:R:3 config_type=111adatom kpoints_mp_grid="6 6 1" castep_file_name=CASTEP001/castep.castep castep_run_time=2137.03 dft_energy=-23805.11310402 dft_virial="20.25924557 -4.1988859 6.30081926 -4.1988859 19.60956597 1.98241463 6.30081926 1.98241463 18.74011239" cutoff=-1.0 nneightol=1.2 pbc="T T T"
Si       3.88564296       2.04672779      56.92108648       0.35146900       0.30719600       0.85551700      -1.04217257       0.23711010       0.98112947
Si       6.30353860       3.33712917      -0.46101504       0.56891500       0.50087400      -0.00692900      -0.79911904      -0.29515285       0.98704192
Si       0.17474611      -0.13373195       2.05770130       0.03275000      -0.02007200       0.03092700       0.39423127       1.23387338      -0.74398439
Si       0.26978941       0.17461374       4.57462122       0.02196400       0.02620800       0.06875600      -1.15988925       0.16427853      -1.35071887
Si       1.94665660       1.18578505       8.31962827       0.16404400       0.17797600       0.12504300       0.50587082      -0.60890621      -0.30748194
Si       1.98153043       1.17423208      10.68684638       0.16944400       0.17624200       0.16062200      -0.29610523      -0.02931905       0.27057817
Si       3.79911232       2.16551550       5.17429341       0.33130700       0.32502500       0.07776900      -0.58596350      -0.90889399       0.26364900
Si       3.90309526       2.20935549       7.47717301       0.34153300       0.33160500       0.11238100      -0.22502673       0.50713724       0.64185679
Si       0.01477118       0.03035486      11.35471606      -0.00035800       0.00455600       0.17066000       0.29729975       0.61919069       1.40115659
Si       0.00585077       0.09458910      13.88168264      -0.00633800       0.01419700       0.20864000       0.51615208      -0.28005018       0.25344519
Si       2.04676595       1.13143812      17.91764347       0.18113500       0.16981900       0.26930000      -1.52628132      -0.11256642      -1.15156115
Si       2.17348650       1.08929710      20.18213287       0.20076900       0.16349400       0.30333500       0.80157260       0.97214212       0.12671362
Si       3.93983472       2.44580493      14.70071788       0.32856400       0.36709400       0.22095000      -0.02260137      -0.40761441      -0.08702787
Si       3.80039711       2.30878831      17.04218728       0.32072200       0.34652900       0.25614200       0.42961482       0.87878755      -0.03185800
Si       0.40119135       0.06477391      20.99191987       0.04728700       0.00972200       0.31550600      -2.64743517      -1.05350818      -0.39520697
Si       0.21383973      -0.06783205      23.27683525       0.03288600      -0.01018100       0.34984800      -0.06292441       0.55783598       0.48205790
Si       1.90829385       0.98051663      27.19409918       0.17446200       0.14716700       0.40872400       0.76068755      -0.61262917      -0.09253349
Si       1.81063483       0.93129326      29.49917441       0.16546200       0.13977900       0.44336900       0.38287162      -0.13904424       0.72796408
Si       3.77857885       2.34187484      24.15328946       0.31540300       0.35149500       0.36302100      -0.13012473      -1.08275180      -0.52213521
Si       3.84469526       2.11433331      26.43714029       0.34107300       0.31734300       0.39734700      -0.27851831       0.81915723       0.83768097
Si      -0.07886809      -0.26144756      30.31767738       0.00936900      -0.03924100       0.45567100       0.48476339       1.10431904       1.27044773
Si      -0.22200619      -0.04586542      32.76846237      -0.02541500      -0.00688400       0.49250600       1.30834755      -0.21588925      -0.49342807
Si       1.85257112       1.17651736      36.63036990       0.15251000       0.17658500       0.55055000       0.79797941      -0.11174116      -0.00498888
Si       2.00153691       1.25890722      38.99020272       0.16569000       0.18895100       0.58601800      -1.72904488      -0.03560717       0.27650998
Si       3.86437862       2.22038211      33.41450885       0.33567300       0.33326000       0.50221600      -0.66849471      -0.13714619       0.35167564
Si       3.82935477       2.24823849      35.74140727       0.32903000       0.33744100       0.53718900      -0.12258214      -0.28798709       0.53592861
Si      -0.05685749       0.03960923      39.73857871      -0.01036300       0.00594500       0.59726600       0.44651190       0.56128621      -0.32578984
Si      -0.07776025       0.01589033      42.11298250      -0.01130000       0.00238500       0.63295300       0.80193209      -0.47508551      -0.59564765
Si       1.93078143       1.20120900      46.15080629       0.16082300       0.18029100       0.69364100      -0.50096196      -0.21765537      -0.75515646
Si       1.93272784       1.22829918      48.50950803       0.15904300       0.18435700       0.72909200      -0.91457215       0.64277261      -0.88589128
Si       3.72540646       2.08575737      42.86056008       0.32771200       0.31305400       0.64418900       0.92134543       1.23701932       1.21589479
Si       3.93935773       2.14144348      45.28932227       0.35134300       0.32141200       0.68069300      -0.98906574       0.80075114      -0.07589594
Si       0.12738218       0.06123607      49.41044680       0.01196200       0.00919100       0.74263300      -0.82304988       0.22789825      -1.48352662
Si       0.09437398       0.03969584      51.62822924       0.00928800       0.00595800       0.77596600      -1.05676613      -0.47630137       0.94217564
Si       1.92347662       1.11716015      55.42979030       0.16618100       0.16767600       0.83310300       0.12774155      -0.19486402       0.89313984
Si       2.17359805       1.16149983       1.34518721       0.19536500       0.17433100       0.02021800      -1.78254435       0.82656169       0.70056202
Si       3.66599862       2.18320473      52.02550458       0.31267700       0.32768000       0.78193700       0.18054454       1.05193815       0.28027491
Si       3.64813088       2.12769851      54.34914283       0.31452000       0.31934900       0.81686100       0.41367573       0.34949573      -1.07785817
Si       2.22739745       3.55952050       2.02410156       0.02239700       0.53425300       0.03042200      -0.62733002      -1.21465499      -1.69629503
Si       1.97025202       3.36308671       4.32352138       0.00371400       0.50477000       0.06498200       0.86710548       0.33824726      -0.40930033