8
Lattice="-3.39290951 3.12569817 3.46494285 3.29629668 -3.3518794 3.16285696 3.45293714 3.53227037 -3.13362527" Properties=species:S:1:pos:R:3:dft_force:R:3 config_type=bc8 Minim_Constant_Volume=T dft_virial="0.87292136 -2.49120894 -0.87114718 -2.49120894 2.35663059 -6.22547557 -0.87114718 -6.22547557 3.26519389" dft_energy=-1302.10136192 cutoff=-1.0 nneightol=1.2 pbc="T T T"
Si       2.70389930       0.65976576      -0.60882525       1.40470000       0.35267000      -1.67837000
Si       4.15370763      -0.69700311       0.65017531       0.20738000      -0.44251000      -1.13998000
Si       0.83150938       0.75033360       0.62664218      -1.04693000      -1.56501000       0.73780000
Si       0.72784573      -0.71993229       2.60765380      -2.52689000      -0.25122000      -1.07512000
Si      -0.64939326       2.46290164       0.50109793       0.41941000       0.68154000       2.51200000
Si       0.61736039       3.90012174      -0.64216312       1.19490000       1.97510000       0.97069000
Si      -0.76439352       0.53236178       4.14797248      -0.08414000       2.60280000      -4.43313000
Si       2.63164564       2.66098019       2.51175369       0.43156000      -3.35338000       4.10610000
8
Lattice="-3.1723143 3.43866007 3.30384781 2.97885745 -3.2946789 3.19831735 3.34770206 3.24219344 -3.17654106" Properties=species:S:1:pos:R:3:dft_force:R:3 config_type=bc8 Minim_Constant_Volume=T dft_virial="17.10464281 -1.8011435 4.175291 -1.8011435 7.27275268 -10.94856194 4.175291 -10.94856194 17.21810868" dft_energy=-1299.66341544 cutoff=-1.0 nneightol=1.2 pbc="T T T"
Si       2.70389391       0.65976506      -0.60881998       0.23306000      -0.98234000      -1.56192000
Si       4.15371204      -0.69700377       0.65017164      -2.43032000      -0.94714000       1.34721000
Si       0.83151047       0.75033491       0.62664305      -0.69045000      -1.24496000       0.94963000
Si       0.72784733      -0.71993172       2.60765113      -6.40933000       1.35562000      -4.41106000
Si      -0.64939165       2.46289728       0.50109653       5.45563000       0.27926000       5.56693000
Si       0.61736147       3.90012564      -0.64216701       2.23508000      -0.03004000       0.32583000
Si      -0.76439217       0.53236177       4.14797203       0.15254000       6.16592000      -8.75090000
Si       2.63164997       2.66097569       2.51175374       1.45379000      -4.59633000       6.53429000
8
Lattice="-3.42147179 3.18699419 3.29559428 3.22782905 -3.06081719 3.28826656 3.35408399 3.4552083 -3.35587942" Properties=species:S:1:pos:R:3:dft_force:R:3 config_type=bc8 Minim_Constant_Volume=T dft_virial="5.35555059 -4.39076872 1.8912076 -4.39076872 2.57418209 -4.75329931 1.8912076 -4.75329931 2.04730041" dft_energy=-1302.84743312 cutoff=-1.0 nneightol=1.2 pbc="T T T"
Si       2.70389573       0.65976650      -0.60882114       1.22773000      -0.02374000      -1.53935000
Si       4.15371108      -0.69700432       0.65017479      -0.49733000       0.42851000       0.70006000
Si       0.83150734       0.75033444       0.62664350      -0.98539000      -1.58490000       0.93316000
Si       0.72784395      -0.71993337       2.60765499      -1.99417000      -0.03634000      -0.82809000
Si      -0.64939455       2.46290073       0.50109930       0.33201000       0.50117000       2.17068000
Si       0.61735865       3.90012551      -0.64216368       2.24041000      -1.16061000      -0.71176000
Si      -0.76438808       0.53235793       4.14797135       0.20743000       1.32890000      -2.62807000
Si       2.63164779       2.66097966       2.51175092      -0.53068000       0.54701000       1.90335000
8
Lattice="-3.32671584 3.39089198 3.32013456 3.38133809 -3.3051511 3.41939831 3.07039288 3.34233735 -3.51775974" Properties=species:S:1:pos:R:3:dft_force:R:3 config_type=bc8 Minim_Constant_Volume=T dft_virial="8.43693157 2.0318612 1.28252436 2.0318612 -0.44525373 -2.25815955 1.28252436 -2.25815955 0.84376054" dft_energy=-1302.58868117 cutoff=-1.0 nneightol=1.2 pbc="T T T"
Si       2.70389740       0.65976286      -0.60882059       0.43005000      -1.55709000      -1.51712000
Si       4.15370805      -0.69700181       0.65017583      -1.21256000      -0.50884000       0.70968000
Si       0.83151248       0.75033561       0.62664193      -0.77247000      -1.36388000       0.81678000
Si       0.72784702      -0.71993401       2.60765289       0.34879000       1.14081000       0.28321000
Si      -0.64939625       2.46290309       0.50109693      -1.40099000       0.99396000       1.27509000
Si       0.61736150       3.90012191      -0.64216209      -2.01606000       0.83954000      -2.97480000
Si      -0.76439133       0.53235877       4.14797028       3.82478000       1.32261000       0.35017000
Si       2.63164799       2.66098122       2.51175152       0.79846000      -0.86710000       1.05699000
8
Lattice="-3.15406761 3.44204636 3.39345803 3.25967317 -3.32390603 3.18976591 3.20777508 3.26809932 -3.2903882" Properties=species:S:1:pos:R:3:dft_force:R:3 config_type=bc8 Minim_Constant_Volume=T dft_virial="8.55870038 -0.1786165 -0.57146439 -0.1786165 3.14512183 -7.26514127 -0.57146439 -7.26514127 9.06355985" dft_energy=-1301.70159192 cutoff=-1.0 nneightol=1.2 pbc="T T T"
Si       2.70389915       0.65976235      -0.60882230      -0.05021000      -1.59649000      -1.63856000
Si       4.15370900      -0.69700167       0.65017601      -1.75795000      -1.20873000       0.26122000
Si       0.83150822       0.75033550       0.62664486      -0.95720000      -1.45477000       0.76693000
Si       0.72784744      -0.71993201       2.60765250      -1.49171000       1.52147000      -1.06095000
Si      -0.64939499       2.46289879       0.50109656       0.73315000       0.76442000       2.50641000
Si       0.61736273       3.90012542      -0.64216513       0.64846000       1.31630000       0.12353000
Si      -0.76439198       0.53236207       4.14797107       0.94162000       3.68470000      -4.93271000
Si       2.63165033       2.66097760       2.51175334       1.93383000      -3.02690000       3.97412000
8
Lattice="-3.28025544 3.21559085 3.43028409 3.31330353 -3.20867675 3.39722878 3.37878454 3.38988931 -3.45327927" Properties=species:S:1:pos:R:3:dft_force:R:3 config_type=bc8 Minim_Constant_Volume=T dft_virial="0.71475926 -3.08474589 -1.42169916 -3.08474589 -0.15414357 -3.6532299 -1.42169916 -3.6532299 -2.89197063" dft_energy=-1302.93886247 cutoff=-1.0 nneightol=1.2 pbc="T T T"
Si       2.70389809       0.65976216      -0.60882076       1.03354000      -0.29110000      -1.75444000
Si       4.15371275      -0.69700752       0.65017640      -0.87999000       0.06222000       0.59613000
Si       0.83151011       0.75033702       0.62664326      -1.14289000      -1.38950000       0.70454000
Si       0.72784653      -0.71993369       2.60765586      -0.98725000       0.08995000      -0.01167000
Si      -0.64939278       2.46289898       0.50109502      -0.71257000       0.67822000       1.68008000
Si       0.61736395       3.90012298      -0.64216593       0.97301000       0.38480000      -1.14622000
Si      -0.76439418       0.53236408       4.14797100       0.88677000       1.24013000      -1.87349000
Si       2.63164746       2.66097980       2.51175496       0.82938000      -0.77472000       1.80508000
8
Lattice="-3.33598981 3.2726046 3.36807398 3.1761061 -3.38131052 3.48045127 3.42668076 3.31529325 -3.4121407" Properties=species:S:1:pos:R:3:dft_force:R:3 config_type=bc8 Minim_Constant_Volume=T dft_virial="2.49834821 -0.58612212 -0.60568401 -0.58612212 0.4527477 -3.20851296 -0.60568401 -3.20851296 -1.04372867" dft_energy=-1302.74465185 cutoff=-1.0 nneightol=1.2 pbc="T T T"
Si       2.70389841       0.65976568      -0.60882014       1.12610000      -0.42823000      -1.66911000
Si       4.15370755      -0.69700561       0.65017925      -1.15305000      -0.17131000       0.77089000
Si       0.83150983       0.75033263       0.62664303      -0.89835000      -1.25761000       0.64203000
Si       0.72784538      -0.71993403       2.60765566      -1.46995000       0.07597000      -0.31319000
Si      -0.64939570       2.46290008       0.50109709      -0.41849000       0.89155000       1.85063000
Si       0.61736255       3.90012180      -0.64216463       1.41345000       0.84191000      -1.06444000
Si      -0.76439378       0.53235889       4.14797229       0.60698000       2.05928000      -3.16480000
Si       2.63164766       2.66098457       2.51175018       0.79331000      -2.01155000       2.94798000
8
Lattice="-3.55969557 3.47852168 3.41413781 3.50877838 -3.34857673 3.32238542 3.72785695 3.30510325 -3.43940979" Properties=species:S:1:pos:R:3:dft_force:R:3 config_type=bc8 Minim_Constant_Volume=T dft_virial="-9.83156265 -1.11155374 -1.54233792 -1.11155374 -3.85738111 -4.35918907 -1.54233792 -4.35918907 -1.56473198" dft_energy=-1301.85740986 cutoff=-1.0 nneightol=1.2 pbc="T T T"
Si       2.70389530       0.65976354      -0.60881958       1.77710000      -0.37759000      -1.86063000
Si       4.15371016      -0.69700518       0.65017489       0.08336000      -0.63339000      -0.33684000
Si       0.83151072       0.75033353       0.62664609      -1.07415000      -1.38864000       0.98028000
Si       0.72784727      -0.71993078       2.60765591      -0.87719000      -0.06496000       0.39699000
Si      -0.64939567       2.46289941       0.50110099      -1.65997000       0.91715000       1.30212000
Si       0.61735954       3.90012663      -0.64216537       1.09848000       1.39637000      -0.21262000
Si      -0.76439257       0.53235917       4.14797531       0.23987000       1.67775000      -2.67503000
Si       2.63165147       2.66097883       2.51175099       0.41251000      -1.52669000       2.40572000
8
Lattice="-3.2101304 3.1825107 3.3479206 3.24049873 -3.19204181 3.25189065 3.27110585 3.24952891 -3.19495541" Properties=species:S:1:pos:R:3:dft_force:R:3 config_type=bc8 Minim_Constant_Volume=T dft_virial="7.55705473 -1.41567058 -1.1807584 -1.41567058 9.34448263 -9.80635506 -1.1807584 -9.80635506 10.29403269" dft_energy=-1301.53730674 cutoff=-1.0 nneightol=1.2 pbc="T T T"
Si       2.70389736       0.65976322      -0.60881748       0.08740000      -1.12576000      -1.49047000
Si       4.15371166      -0.69700433       0.65017557      -1.62656000      -0.42114000       1.03310000
Si       0.83151116       0.75033095       0.62664440      -0.91336000      -1.29341000       0.85883000
Si       0.72784415      -0.71993204       2.60765683      -1.47772000       1.22521000      -1.26918000
Si      -0.64939574       2.46289903       0.50110070       0.68219000       0.58590000       2.45822000
Si       0.61736282       3.90012509      -0.64216631       1.55975000      -0.02185000      -0.38534000
Si      -0.76439571       0.53236129       4.14797250       0.21030000       5.45426000      -7.69525000
Si       2.63165025       2.66098092       2.51175398       1.47800000      -4.40321000       6.49010000
8
Lattice="-3.36402587 3.29056793 3.28004808 3.31922123 -3.16852569 3.48969926 3.39253403 3.15737942 -3.37186203" Properties=species:S:1:pos:R:3:dft_force:R:3 config_type=bc8 Minim_Constant_Volume=T dft_virial="1.20604572 -0.12646876 -2.63742848 -0.12646876 4.6632693 -6.65373966 -2.63742848 -6.65373966 3.22218027" dft_energy=-1302.30361733 cutoff=-1.0 nneightol=1.2 pbc="T T T"
Si       2.70389962       0.65976251      -0.60882125       0.48211000      -1.32919000      -1.46204000
Si       4.15371006      -0.69700619       0.65017762      -1.12161000      -0.03849000       1.22128000
Si       0.83151185       0.75033636       0.62664253      -1.02364000      -1.30588000       0.79671000
Si       0.72784775      -0.71993133       2.60765165       0.01964000       1.15872000      -0.01936000
Si      -0.64939749       2.46289965       0.50109870      -1.15981000       0.68258000       1.22020000
Si       0.61736414       3.90012177      -0.64216544       1.31945000      -0.20660000      -1.19618000
Si      -0.76439218       0.53235793       4.14797494       0.69452000       3.51295000      -5.45528000
Si       2.63164970       2.66097653       2.51175288       0.78933000      -2.47409000       4.89468000
8
Lattice="-3.18786835 3.53075453 3.33273232 3.09990024 -3.35916534 3.36451311 3.33712351 3.16276563 -3.37853652" Properties=species:S:1:pos:R:3:dft_force:R:3 config_type=bc8 Minim_Constant_Volume=T dft_virial="9.49763036 0.68749626 0.23431375 0.68749626 2.15394562 -6.60760846 0.23431375 -6.60760846 7.51346697" dft_energy=-1301.56615586 cutoff=-1.0 nneightol=1.2 pbc="T T T"
Si       2.70389797       0.65976596      -0.60882190       0.00560000      -1.66979000      -1.55360000
Si       4.15371217      -0.69700619       0.65017493      -2.19829000      -0.73431000       1.24932000
Si       0.83151238       0.75033568       0.62664167      -0.81363000      -1.25881000       0.72256000
Si       0.72784388      -0.71993038       2.60765334      -1.91436000       1.51075000      -1.45273000
Si      -0.64939307       2.46290011       0.50109701       1.08504000       0.74430000       2.76137000
Si       0.61736320       3.90012411      -0.64216579       1.44139000       0.55445000      -0.53460000
Si      -0.76439408       0.53236113       4.14797200       0.80635000       3.49103000      -5.15308000
Si       2.63164793       2.66097817       2.51175345       1.58792000      -2.63762000       3.96076000
8
Lattice="-3.39745781 3.41647915 3.32285989 3.38931862 -3.29913139 3.33869618 3.32389062 3.23727032 -3.2869732" Properties=species:S:1:pos:R:3:dft_force:R:3 config_type=bc8 Minim_Constant_Volume=T dft_virial="0.42395061 0.88050681 -1.79930214 0.88050681 2.0891826 -8.06388824 -1.79930214 -8.06388824 5.41337038" dft_energy=-1302.15699202 cutoff=-1.0 nneightol=1.2 pbc="T T T"
Si       2.70390047       0.65976377      -0.60882143       0.63639000      -1.32887000      -1.58023000
Si       4.15371015      -0.69700689       0.65017574      -0.73371000      -0.66247000       0.33067000
Si       0.83150949       0.75033443       0.62664339      -0.98616000      -1.51414000       0.77633000
Si       0.72784297      -0.71993210       2.60765695      -0.18122000       1.05677000      -0.08905000
Si      -0.64939408       2.46289801       0.50110103      -1.18908000       0.93188000       1.45497000
Si       0.61735895       3.90012605      -0.64216511       0.79515000       0.88277000      -0.52808000
Si      -0.76439249       0.53235828       4.14797275       0.71500000       4.16700000      -6.03804000
Si       2.63164882       2.66098087       2.51174965       0.94363000      -3.53293000       5.67343000
8
Lattice="-3.50381525 3.45947931 3.2766554 3.28551207 -3.44730021 3.42607752 3.41408042 3.35620451 -3.38438127" Properties=species:S:1:pos:R:3:dft_force:R:3 config_type=bc8 Minim_Constant_Volume=T dft_virial="-0.0390204 0.90057447 -0.01864146 0.90057447 -3.12764571 -3.569832 -0.01864146 -3.569832 0.68117058" dft_energy=-1302.72374355 cutoff=-1.0 nneightol=1.2 pbc="T T T"
Si       2.70389778       0.65976522      -0.60882039       1.47131000      -0.56008000      -1.65777000
Si       4.15371183      -0.69700886       0.65017692      -0.54101000      -0.60778000       0.32486000
Si       0.83150950       0.75033421       0.62664358      -0.83094000      -1.49242000       0.78434000
Si       0.72784665      -0.71992925       2.60765121      -1.07207000       0.04327000       0.13184000
Si      -0.64939685       2.46289977       0.50109821      -1.13720000       1.14208000       1.42862000
Si       0.61736165       3.90012404      -0.64216726       1.06314000       1.28509000      -0.66434000
Si      -0.76439053       0.53236032       4.14797138       0.63821000       2.18860000      -3.39917000
Si       2.63164945       2.66098061       2.51175283       0.40856000      -1.99875000       3.05163000
8
Lattice="-3.41887427 3.51251844 3.2233693 3.37632287 -3.49570556 3.28689902 3.36406385 3.22241961 -3.13847403" Properties=species:S:1:pos:R:3:dft_force:R:3 config_type=bc8 Minim_Constant_Volume=T dft_virial="1.02703807 2.08597289 -2.5473945 2.08597289 4.2789494 -10.95750194 -2.5473945 -10.95750194 13.75367555" dft_energy=-1300.64944229 cutoff=-1.0 nneightol=1.2 pbc="T T T"
Si       2.70389541       0.65976350      -0.60882015       0.70403000      -1.30970000      -1.49246000
Si       4.15371106      -0.69700850       0.65017737      -0.84578000      -1.27447000      -0.15160000
Si       0.83150836       0.75033467       0.62664361      -0.78553000      -1.50623000       0.84706000
Si       0.72784937      -0.71993337       2.60765388      -0.44319000       0.94561000      -0.25654000
Si      -0.64939236       2.46290026       0.50109438      -1.14393000       1.22284000       1.50555000
Si       0.61736400       3.90012253      -0.64216467       1.00034000       1.71163000       0.62144000
Si      -0.76439201       0.53235861       4.14797447       0.42131000       7.25636000     -10.39320000
Si       2.63165052       2.66098142       2.51174930       1.09274000      -7.04603000       9.31975000
8
Lattice="-3.25344391 3.38130061 3.25887784 3.26392686 -3.46524113 3.33816324 3.41589311 3.41543405 -3.3453649" Properties=species:S:1:pos:R:3:dft_force:R:3 config_type=bc8 Minim_Constant_Volume=T dft_virial="2.41359306 -1.36458301 -2.64360729 -1.36458301 -2.53031912 -3.23810935 -2.64360729 -3.23810935 3.57102044" dft_energy=-1302.50627207 cutoff=-1.0 nneightol=1.2 pbc="T T T"
Si       2.70389848       0.65976306      -0.60882125       1.09197000      -0.36189000      -1.61936000
Si       4.15371191      -0.69700763       0.65017730      -1.92641000      -0.61563000       0.92153000
Si       0.83151093       0.75033216       0.62664403      -0.99952000      -1.46343000       0.75082000
Si       0.72784373      -0.71992908       2.60765374      -1.59501000      -0.05322000      -0.30240000
Si      -0.64939359       2.46289941       0.50109767      -0.35712000       1.00785000       1.90388000
Si       0.61736405       3.90012375      -0.64216692       1.13912000       1.61134000      -0.22916000
Si      -0.76439288       0.53236105       4.14797029       0.58748000       2.04323000      -3.27248000
Si       2.63164905       2.66097977       2.51175143       2.05949000      -2.16825000       1.84716000
8
Lattice="-3.22689667 3.26031267 3.42614061 3.26294424 -3.31949136 3.22193207 3.3922523 3.2858939 -3.30054393" Properties=species:S:1:pos:R:3:dft_force:R:3 config_type=bc8 Minim_Constant_Volume=T dft_virial="3.4502876 -1.46977708 -1.11768634 -1.46977708 3.55526605 -6.32627925 -1.11768634 -6.32627925 5.98672795" dft_energy=-1302.202766 cutoff=-1.0 nneightol=1.2 pbc="T T T"
Si       2.70390092       0.65976243      -0.60882259       0.65851000      -0.63853000      -1.76067000
Si       4.15371255      -0.69700632       0.65017535      -1.14515000      -0.80342000       0.00576000
Si       0.83150926       0.75033519       0.62664333      -1.05224000      -1.35720000       0.78726000
Si       0.72784742      -0.71993247       2.60765345      -2.00259000       0.59522000      -0.95137000
Si      -0.64939296       2.46289882       0.50109564       0.54424000       0.74378000       2.51548000
Si       0.61736144       3.90012066      -0.64216307       1.21955000       1.14752000       0.16128000
Si      -0.76439485       0.53235966       4.14797538       0.57857000       3.42201000      -5.07630000
Si       2.63165139       2.66097940       2.51175019       1.19912000      -3.10937000       4.31856000
8
Lattice="-3.21087925 3.40999466 3.35880192 3.19607225 -3.3160934 3.36502758 3.26540023 3.3325336 -3.35474024" Properties=species:S:1:pos:R:3:dft_force:R:3 config_type=bc8 Minim_Constant_Volume=T dft_virial="6.86072114 -1.05539409 -0.9031508 -1.05539409 -0.11550342 -5.61952515 -0.9031508 -5.61952515 3.00564303" dft_energy=-1302.37281778 cutoff=-1.0 nneightol=1.2 pbc="T T T"
Si       2.70389933       0.65976357      -0.60882313       0.54269000      -0.93384000      -1.60065000
Si       4.15370756      -0.69700545       0.65017781      -1.82527000      -0.58190000       1.01745000
Si       0.83151060       0.75033766       0.62664110      -0.95481000      -1.46847000       0.65783000
Si       0.72784708      -0.71993183       2.60765388      -1.49676000       0.69412000      -0.74163000
Si      -0.64939475       2.46289990       0.50109655       0.18413000       0.80730000       2.16341000
Si       0.61735925       3.90012861      -0.64216636       0.96160000       0.67946000      -0.85891000
Si      -0.76439141       0.53236257       4.14797030       1.12378000       2.60484000      -3.36200000
Si       2.63165010       2.66098075       2.51175104       1.46464000      -1.80151000       2.72450000
8
Lattice="-3.41708397 3.34135148 3.25460841 3.3184665 -3.54770509 3.24781638 3.3650477 3.49948738 -3.17073285" Properties=species:S:1:pos:R:3:dft_force:R:3 config_type=bc8 Minim_Constant_Volume=T dft_virial="1.3863482 -0.2839266 -1.55109669 -0.2839266 -1.01463464 -4.32227166 -1.55109669 -4.32227166 6.74996161" dft_energy=-1302.22814673 cutoff=-1.0 nneightol=1.2 pbc="T T T"
Si       2.70389823       0.65976638      -0.60882288       1.40331000      -0.08043000      -1.47744000
Si       4.15370730      -0.69700396       0.65017699      -0.65456000      -1.11830000      -0.81790000
Si       0.83151199       0.75033083       0.62664421      -0.78948000      -1.57427000       0.83362000
Si       0.72784503      -0.71992878       2.60765394      -1.55410000      -0.23697000      -0.43907000
Si      -0.64939247       2.46289769       0.50109684      -0.64216000       1.13220000       1.83655000
Si       0.61736284       3.90012539      -0.64216849       0.99715000       2.38010000       1.10387000
Si      -0.76439341       0.53235849       4.14797296       0.26511000       3.02660000      -4.66348000
Si       2.63165007       2.66097724       2.51175255       0.97473000      -3.52893000       3.62385000
8
Lattice="-3.29683102 3.36108648 3.31000535 3.29278226 -3.39123768 3.38162055 3.34398542 3.24940412 -3.20311226" Properties=species:S:1:pos:R:3:dft_force:R:3 config_type=bc8 Minim_Constant_Volume=T dft_virial="2.57906779 0.52017838 -3.16017868 0.52017838 3.79518044 -9.2630481 -3.16017868 -9.2630481 7.39395387" dft_energy=-1301.57628424 cutoff=-1.0 nneightol=1.2 pbc="T T T"
Si       2.70389827       0.65976526      -0.60882270       0.56147000      -1.09059000      -1.50115000
Si       4.15370768      -0.69700392       0.65017757      -1.41245000      -0.64948000       0.79827000
Si       0.83150968       0.75033672       0.62664320      -0.89513000      -1.38638000       0.68411000
Si       0.72784577      -0.71993316       2.60765471      -0.71357000       0.83994000      -0.40872000
Si      -0.64939142       2.46289837       0.50109594      -0.69837000       0.96429000       1.67113000
Si       0.61735667       3.90012552      -0.64216340       1.14680000       1.06381000      -0.44082000
Si      -0.76438972       0.53235871       4.14797176       0.52695000       5.47064000      -7.79877000
Si       2.63164853       2.66097935       2.51175053       1.48430000      -5.21223000       6.99595000
8
Lattice="-3.36755513 3.5060552 3.25885411 3.35090598 -3.30692161 3.26914095 3.24241535 3.28558124 -3.22428034" Properties=species:S:1:pos:R:3:dft_force:R:3 config_type=bc8 Minim_Constant_Volume=T dft_virial="3.58049986 0.67301755 -1.03888284 0.67301755 1.72201713 -8.88895903 -1.03888284 -8.88895903 8.62853055" dft_energy=-1301.85247959 cutoff=-1.0 nneightol=1.2 pbc="T T T"
Si       2.70389742       0.65976282      -0.60882314       0.50149000      -1.44612000      -1.49234000
Si       4.15370813      -0.69700443       0.65017526      -1.08392000      -0.94784000       0.37596000
Si       0.83150922       0.75033280       0.62664495      -0.88314000      -1.61899000       0.83576000
Si       0.72784836      -0.71993425       2.60765415      -0.50175000       1.19879000      -0.39452000
Si      -0.64939215       2.46289921       0.50109742      -0.73999000       0.91688000       1.65074000
Si       0.61736011       3.90012218      -0.64216216       0.79533000       1.09937000      -0.14044000
Si      -0.76439203       0.53235806       4.14797351       0.55974000       4.66631000      -6.45036000
Si       2.63165103       2.66098116       2.51174834       1.35225000      -3.86839000       5.61521000
8
Lattice="-3.42018197 3.2788359 3.36973347 3.36891387 -3.37335176 3.28500112 3.44057839 3.49858545 -3.26392672" Properties=species:S:1:pos:R:3:dft_force:R:3 config_type=bc8 Minim_Constant_Volume=T dft_virial="-2.1574953 -1.78933141 -1.75949596 -1.78933141 -2.10092173 -4.82438182 -1.75949596 -4.82438182 0.81978901" dft_energy=-1302.64844516 cutoff=-1.0 nneightol=1.2 pbc="T T T"
Si       2.70389677       0.65976323      -0.60882229       1.46231000      -0.01650000      -1.67737000
Si       4.15371332      -0.69700559       0.65017485      -0.28938000      -0.39310000      -0.30858000
Si       0.83150896       0.75033601       0.62664327      -1.05140000      -1.59061000       0.73690000
Si       0.72784466      -0.71992882       2.60765264      -1.33031000      -0.26951000      -0.17787000
Si      -0.64939521       2.46289871       0.50109599      -0.86898000       0.93449000       1.74561000
Si       0.61736218       3.90012047      -0.64216353       1.04835000       1.63860000       0.07980000
Si      -0.76439284       0.53236235       4.14797289       0.28993000       1.89266000      -3.39150000
Si       2.63164958       2.66098267       2.51174999       0.73946000      -2.19602000       2.99301000
8
Lattice="-3.24919083 3.43775402 3.36961387 3.38463542 -3.26706797 3.36251426 3.38758519 3.28446898 -3.210837" Properties=species:S:1:pos:R:3:dft_force:R:3 config_type=bc8 Minim_Constant_Volume=T dft_virial="-0.9050669 -1.31243744 -4.54562995 -1.31243744 1.43100759 -10.42602967 -4.54562995 -10.42602967 4.92651313" dft_energy=-1301.45377561 cutoff=-1.0 nneightol=1.2 pbc="T T T"
Si       2.70389539       0.65976697      -0.60882092       0.68285000      -0.87784000      -1.48264000
Si       4.15370780      -0.69700457       0.65017502      -1.22283000      -0.53604000       0.78726000
Si       0.83151233       0.75033258       0.62664151      -0.89545000      -1.34079000       0.84650000
Si       0.72784749      -0.71993128       2.60765496      -0.53698000       0.69831000      -0.17767000
Si      -0.64939758       2.46290008       0.50109884      -1.00470000       0.73957000       1.41878000
Si       0.61736103       3.90012460      -0.64216329       1.12100000       0.84907000      -0.48442000
Si      -0.76439418       0.53235884       4.14797069       0.65506000       4.90954000      -6.89807000
Si       2.63164948       2.66097706       2.51175428       1.20104000      -4.44183000       5.99027000
8
Lattice="-3.52718613 3.24578691 3.24946039 3.48079976 -3.31270873 3.35948678 3.24416183 3.34732495 -3.35975288" Properties=species:S:1:pos:R:3:dft_force:R:3 config_type=bc8 Minim_Constant_Volume=T dft_virial="0.33630398 2.14913568 -0.15083961 2.14913568 2.37857032 -2.95442357 -0.15083961 -2.95442357 3.08163099" dft_energy=-1303.02869364 cutoff=-1.0 nneightol=1.2 pbc="T T T"
Si       2.70389820       0.65976357      -0.60881918       1.11335000      -0.80283000      -1.49970000
Si       4.15371101      -0.69700712       0.65017801      -0.01624000       0.05815000       0.30421000
Si       0.83151070       0.75033632       0.62664380      -0.75094000      -1.28729000       1.08100000
Si       0.72784483      -0.71993126       2.60765449       0.12233000       0.51936000       0.31440000
Si      -0.64939773       2.46290129       0.50109863      -1.79854000       0.98854000       1.14229000
Si       0.61736248       3.90012552      -0.64216918      -0.01511000       0.97911000      -1.15113000
Si      -0.76439294       0.53236386       4.14796972       0.93466000       2.02873000      -3.19600000
Si       2.63164950       2.66097800       2.51175365       0.41048000      -2.48376000       3.00492000
8
Lattice="-3.27447691 3.41119166 3.47348551 3.57556886 -3.41076023 3.12647159 3.25289036 3.28460225 -3.38041581" Properties=species:S:1:pos:R:3:dft_force:R:3 config_type=bc8 Minim_Constant_Volume=T dft_virial="-1.26170734 0.65671025 -1.60014731 0.65671025 1.16554597 -4.09635654 -1.60014731 -4.09635654 6.01263293" dft_energy=-1302.02203019 cutoff=-1.0 nneightol=1.2 pbc="T T T"
Si       2.70389898       0.65976549      -0.60882203       0.46647000      -1.35692000      -1.76503000
Si       4.15370718      -0.69700500       0.65017795      -0.63804000      -1.75222000      -1.85441000
Si       0.83151264       0.75033041       0.62664423      -1.13898000      -1.54168000       0.80972000
Si       0.72784788      -0.71993117       2.60765137       0.24153000       1.00227000       0.12432000
Si      -0.64939463       2.46290081       0.50109865      -1.54453000       1.07583000       1.66402000
Si       0.61736061       3.90012655      -0.64216519      -0.15672000       2.47905000       0.94691000
Si      -0.76439179       0.53236205       4.14796943       1.40992000       2.46101000      -3.16609000
Si       2.63164742       2.66098135       2.51175361       1.36035000      -2.36733000       3.24056000
8
Lattice="-3.30033958 3.30876854 3.04016286 3.38301681 -3.34114434 3.49283728 3.21599845 3.31363362 -3.02828708" Properties=species:S:1:pos:R:3:dft_force:R:3 config_type=bc8 Minim_Constant_Volume=T dft_virial="5.79742891 -0.15075914 -6.22360451 -0.15075914 7.77642439 -11.75476414 -6.22360451 -11.75476414 12.26596139" dft_energy=-1300.30563796 cutoff=-1.0 nneightol=1.2 pbc="T T T"
Si       2.70390052       0.65976365      -0.60882260       0.35155000      -0.85260000      -0.67234000
Si       4.15371154      -0.69700359       0.65017694      -2.94073000      -0.39914000       2.67121000
Si       0.83150778       0.75033481       0.62664369      -0.77386000      -1.40442000       0.76637000