2
Lattice="2.038674 -2.15884 -1.214062 -2.224141 2.221598 -1.668881 2.180158 2.114857 1.55487" Properties=species:S:1:pos:R:3:dft_force:R:3 config_type=bt dft_energy=-323.962276 dft_virial="6.60426 -0.966055 -2.47678 -0.966055 15.145 4.00592 -2.47678 4.00592 2.31602" cutoff=-1.0 nneightol=1.2 pbc="T T T"
Si       1.10554620      -0.16128625       1.08036032       1.81196000       6.30656000       1.01553000
Si      -1.10554620       0.16128625      -1.08036032      -1.81196000      -6.30656000      -1.01553000
2
Lattice="2.394776 -2.619661 -1.159337 -2.486624 2.529807 -1.163389 2.657275 2.790312 1.328223" Properties=species:S:1:pos:R:3:dft_force:R:3 config_type=bt dft_energy=-325.290601 dft_virial="-0.534178 -0.304046 -0.135138 -0.304046 -1.59663 -0.366571 -0.135138 -0.366571 4.59347" cutoff=-1.0 nneightol=1.2 pbc="T T T"
Si       1.29853056       0.11377103       0.82031472       0.02108000       0.08060000       0.03091000
Si      -1.29853056      -0.11377103      -0.82031472      -0.02108000      -0.08060000      -0.03091000
2
Lattice="2.271726 -2.135221 -1.398419 -2.304929 2.188543 -1.55738 2.261221 2.091514 1.458894" Properties=species:S:1:pos:R:3:dft_force:R:3 config_type=bt dft_energy=-325.277218 dft_virial="4.18351 0.36935 -0.98119 0.36935 5.0253 -0.345372 -0.98119 -0.345372 0.970142" cutoff=-1.0 nneightol=1.2 pbc="T T T"
Si       1.08986942       0.01150858       1.16671081       1.24007000      -0.63267000       0.29821000
Si      -1.08986942      -0.01150858      -1.16671081      -1.24007000       0.63267000      -0.29821000
2
Lattice="2.129967 -2.246183 -1.408138 -2.205431 2.210935 -1.481853 2.250412 2.291165 1.54729" Properties=species:S:1:pos:R:3:dft_force:R:3 config_type=bt dft_energy=-325.157426 dft_virial="0.802521 -0.0317253 -0.296353 -0.0317253 8.552 -0.0955809 -0.296353 -0.0955809 -0.412507" cutoff=-1.0 nneightol=1.2 pbc="T T T"
Si       1.15443700      -0.04151774       0.79586630       0.12411000       2.58603000       0.22550000
Si      -1.15443700       0.04151774      -0.79586630      -0.12411000      -2.58603000      -0.22550000
2
Lattice="2.652917 -2.331746 -1.029376 -2.682037 2.476096 -1.349239 2.896721 2.546429 1.083423" Properties=species:S:1:pos:R:3:dft_force:R:3 config_type=bt dft_energy=-325.278572 dft_virial="-2.78426 -0.32569 -0.245451 -0.32569 -0.541868 0.119166 -0.245451 0.119166 2.67948" cutoff=-1.0 nneightol=1.2 pbc="T T T"
Si       1.46360955       0.04330307       1.01698622       0.21433000      -0.16994000       0.01166000
Si      -1.46360955      -0.04330307      -1.01698622      -0.21433000       0.16994000      -0.01166000
2
Lattice="2.733615 -2.401513 -1.258119 -2.690895 2.390739 -1.161292 2.8922 2.602818 1.180496" Properties=species:S:1:pos:R:3:dft_force:R:3 config_type=bt dft_energy=-325.295207 dft_virial="-2.89873 -0.383796 0.146827 -0.383796 -0.658534 -0.166736 0.146827 -0.166736 1.8315" cutoff=-1.0 nneightol=1.2 pbc="T T T"
Si       1.50107889       0.12502432       1.10696507       0.25616000      -0.18577000      -0.05775000
Si      -1.50107889      -0.12502432      -1.10696507      -0.25616000       0.18577000       0.05775000
2
Lattice="2.585829 -2.070923 -1.782858 -2.478697 1.845882 -1.17142 2.391809 1.984035 1.585414" Properties=species:S:1:pos:R:3:dft_force:R:3 config_type=bt dft_energy=-324.430523 dft_virial="1.57957 -0.785337 0.682516 -0.785337 11.2449 -5.2728 0.682516 -5.2728 3.62549" cutoff=-1.0 nneightol=1.2 pbc="T T T"
Si       1.13130421       0.08270456       1.61138877      -0.20108000       4.65827000      -2.49263000
Si      -1.13130421      -0.08270456      -1.61138877       0.20108000      -4.65827000       2.49263000
2
Lattice="2.56772 -2.216309 -1.006067 -2.616085 2.385124 -1.406167 2.971604 2.571828 1.095042" Properties=species:S:1:pos:R:3:dft_force:R:3 config_type=bt dft_energy=-325.255433 dft_virial="-2.96169 -0.655488 -0.242672 -0.655488 0.16326 -0.0697576 -0.242672 -0.0697576 1.89308" cutoff=-1.0 nneightol=1.2 pbc="T T T"
Si       1.42128949       0.09173394       1.17766490       0.08559000      -0.41266000      -0.07312000
Si      -1.42128949      -0.09173394      -1.17766490      -0.08559000       0.41266000       0.07312000
2
Lattice="2.389717 -2.512429 -1.247333 -2.363056 2.573099 -1.310501 2.34702 2.496392 1.198972" Properties=species:S:1:pos:R:3:dft_force:R:3 config_type=bt dft_energy=-325.481616 dft_virial="3.04513 0.101059 0.762581 0.101059 -1.54432 0.167334 0.762581 0.167334 0.439195" cutoff=-1.0 nneightol=1.2 pbc="T T T"
Si       1.24021330      -0.03084452       1.07490369      -1.62283000      -0.04272000      -0.31550000
Si      -1.24021330       0.03084452      -1.07490369       1.62283000       0.04272000       0.31550000
2
Lattice="2.498808 -2.277911 -1.443497 -2.412508 2.282588 -1.293325 2.567352 2.432755 1.284292" Properties=species:S:1:pos:R:3:dft_force:R:3 config_type=bt dft_energy=-325.531818 dft_virial="-0.694782 -0.91266 0.738105 -0.91266 -1.29293 -0.0351013 0.738105 -0.0351013 -1.22245" cutoff=-1.0 nneightol=1.2 pbc="T T T"
Si       1.16259394       0.07896997       1.37880905       0.56558000      -0.10878000       0.10475000
Si      -1.16259394      -0.07896997      -1.37880905      -0.56558000       0.10878000      -0.10475000
2
Lattice="2.68356 -2.152695 -1.387968 -2.504842 2.256641 -1.249832 2.514378 2.162231 1.058228" Properties=species:S:1:pos:R:3:dft_force:R:3 config_type=bt dft_energy=-325.431831 dft_virial="-0.933786 0.275708 1.02483 0.275708 2.54173 1.31488 1.02483 1.31488 0.935281" cutoff=-1.0 nneightol=1.2 pbc="T T T"
Si       1.14079923      -0.04558211       1.42908811      -0.08302000      -0.80544000      -0.30153000
Si      -1.14079923       0.04558211      -1.42908811       0.08302000       0.80544000       0.30153000
2
Lattice="2.376957 -2.734522 -1.395526 -2.226139 2.635317 -0.933763 2.440684 2.949067 1.116818" Properties=species:S:1:pos:R:3:dft_force:R:3 config_type=bt dft_energy=-325.031501 dft_virial="2.80791 -0.290446 0.632046 -0.290446 -2.48291 -0.133951 0.632046 -0.133951 4.42832" cutoff=-1.0 nneightol=1.2 pbc="T T T"
Si       1.08724020       0.03180390       0.35730293       1.35567000      -0.11704000       0.31666000
Si      -1.08724020      -0.03180390      -0.35730293      -1.35567000       0.11704000      -0.31666000
2
Lattice="2.49507 -2.59371 -1.141981 -2.480919 2.624266 -1.172544 2.555631 2.668423 1.116268" Properties=species:S:1:pos:R:3:dft_force:R:3 config_type=bt dft_energy=-325.29953 dft_virial="-0.403373 -0.187263 -0.012524 -0.187263 -2.11404 0.281005 -0.012524 0.281005 5.11769" cutoff=-1.0 nneightol=1.2 pbc="T T T"
Si       1.29571303       0.00976893       0.62421499      -0.06399000       0.01335000       0.00013000
Si      -1.29571303      -0.00976893      -0.62421499       0.06399000      -0.01335000      -0.00013000
2
Lattice="1.854978 -2.011243 -1.348422 -1.849253 2.067258 -1.441201 2.120549 2.282539 1.338232" Properties=species:S:1:pos:R:3:dft_force:R:3 config_type=bt dft_energy=-324.354889 dft_virial="9.369 -0.472559 0.842215 -0.472559 10.2967 0.59758 0.842215 0.59758 4.37833" cutoff=-1.0 nneightol=1.2 pbc="T T T"
Si       1.01998796       0.03249739       0.90406032      -0.81082000       0.90608000      -0.77703000
Si      -1.01998796      -0.03249739      -0.90406032       0.81082000      -0.90608000       0.77703000
2
Lattice="2.297508 -2.402235 -1.107922 -2.388519 2.358271 -1.194206 2.600344 2.61406 1.275903" Properties=species:S:1:pos:R:3:dft_force:R:3 config_type=bt dft_energy=-325.231754 dft_virial="1.32607 -0.45111 -0.667422 -0.45111 0.70263 0.162377 -0.667422 0.162377 6.47856" cutoff=-1.0 nneightol=1.2 pbc="T T T"
Si       1.29408271       0.00056571       1.03714859      -0.40316000       0.27895000      -0.00082000
Si      -1.29408271      -0.00056571      -1.03714859       0.40316000      -0.27895000       0.00082000
2
Lattice="1.850844 -2.133599 -1.370786 -1.801557 2.1402 -1.293203 2.269643 2.601685 1.280479" Properties=species:S:1:pos:R:3:dft_force:R:3 config_type=bt dft_energy=-325.011005 dft_virial="4.35974 -0.977127 0.330658 -0.977127 5.00935 0.0666591 0.330658 0.0666591 2.78599" cutoff=-1.0 nneightol=1.2 pbc="T T T"
Si       1.06504020       0.17527888       0.59946502      -0.78906000      -1.27170000      -0.01040000
Si      -1.06504020      -0.17527888      -0.59946502       0.78906000       1.27170000       0.01040000
2
Lattice="2.696304 -2.436941 -1.269483 -2.69442 2.299358 -1.010815 2.511467 2.253988 1.265221" Properties=species:S:1:pos:R:3:dft_force:R:3 config_type=bt dft_energy=-324.842526 dft_virial="0.238407 -0.176745 0.133196 -0.176745 5.3971 -1.31363 0.133196 -1.31363 8.09164" cutoff=-1.0 nneightol=1.2 pbc="T T T"
Si       1.21966465      -0.05751233       1.25199714      -0.05510000       2.08218000      -0.60444000
Si      -1.21966465       0.05751233      -1.25199714       0.05510000      -2.08218000       0.60444000
2
Lattice="2.086507 -2.709597 -1.509226 -2.217134 2.444623 -1.261253 2.092395 2.584858 1.749727" Properties=species:S:1:pos:R:3:dft_force:R:3 config_type=bt dft_energy=-325.18817 dft_virial="4.60273 0.616425 -1.59612 0.616425 0.798624 -0.931117 -1.59612 -0.931117 1.22202" cutoff=-1.0 nneightol=1.2 pbc="T T T"
Si       1.05847877      -0.02219603       0.55115009      -1.05702000       0.32564000       0.68386000
Si      -1.05847877       0.02219603      -0.55115009       1.05702000      -0.32564000      -0.68386000
2
Lattice="2.806272 -2.391633 -1.118541 -2.914172 2.309902 -1.166867 2.785416 2.262877 1.317644" Properties=species:S:1:pos:R:3:dft_force:R:3 config_type=bt dft_energy=-324.978589 dft_virial="-2.08625 0.196965 -0.0886233 0.196965 2.80124 -0.401956 -0.0886233 -0.401956 6.66897" cutoff=-1.0 nneightol=1.2 pbc="T T T"
Si       1.49638759      -0.00958936       1.29032582       0.15155000       0.57011000      -0.10878000
Si      -1.49638759       0.00958936      -1.29032582      -0.15155000      -0.57011000       0.10878000
2
Lattice="2.256692 -2.031805 -1.368796 -2.178368 2.146329 -1.436439 2.092206 1.945643 1.224942" Properties=species:S:1:pos:R:3:dft_force:R:3 config_type=bt dft_energy=-324.590903 dft_virial="12.8718 0.3557 0.702537 0.3557 5.2884 1.48854 0.702537 1.48854 2.59299" cutoff=-1.0 nneightol=1.2 pbc="T T T"
Si       1.08636603      -0.03275077       1.31815537      -2.04312000      -0.03677000      -0.21959000
Si      -1.08636603       0.03275077      -1.31815537       2.04312000       0.03677000       0.21959000
2
Lattice="2.123502 -1.976659 -1.34897 -2.153343 2.003431 -1.453683 2.247393 2.070709 1.404534" Properties=species:S:1:pos:R:3:dft_force:R:3 config_type=bt dft_energy=-324.542545 dft_virial="10.8576 -0.208066 1.04951 -0.208066 8.14833 0.90195 1.04951 0.90195 3.27928" cutoff=-1.0 nneightol=1.2 pbc="T T T"
Si       1.18249255      -0.00878339       1.18782545      -2.77165000       0.74762000       0.10067000
Si      -1.18249255       0.00878339      -1.18782545       2.77165000      -0.74762000      -0.10067000
2
Lattice="2.142006 -2.404621 -1.253449 -2.107495 2.444514 -1.262873 2.146797 2.443923 1.189859" Properties=species:S:1:pos:R:3:dft_force:R:3 config_type=bt dft_energy=-325.34767 dft_virial="4.059 -0.154488 0.285761 -0.154488 2.96856 0.243348 0.285761 0.243348 3.72524" cutoff=-1.0 nneightol=1.2 pbc="T T T"
Si       1.06237263      -0.07600332       0.68615945      -0.09687000       0.96662000      -0.07471000
Si      -1.06237263       0.07600332      -0.68615945       0.09687000      -0.96662000       0.07471000
2
Lattice="2.10244 -2.010625 -1.174725 -2.220949 2.093214 -1.545726 2.063091 1.852767 1.393383" Properties=species:S:1:pos:R:3:dft_force:R:3 config_type=bt dft_energy=-323.646183 dft_virial="17.0607 -0.123228 0.37202 -0.123228 10.5611 0.86209 0.37202 0.86209 5.5949" cutoff=-1.0 nneightol=1.2 pbc="T T T"
Si       1.12926570      -0.05763184       1.24504338      -1.14485000       0.62372000       0.05666000
Si      -1.12926570       0.05763184      -1.24504338       1.14485000      -0.62372000      -0.05666000
2
Lattice="2.232546 -2.644381 -0.834659 -2.52321 2.66947 -1.416485 2.380807 2.501977 1.370435" Properties=species:S:1:pos:R:3:dft_force:R:3 config_type=bt dft_energy=-324.846177 dft_virial="5.7995 0.0191597 -0.614552 0.0191597 0.562032 0.0404156 -0.614552 0.0404156 8.64911" cutoff=-1.0 nneightol=1.2 pbc="T T T"
Si       1.26124732      -0.07214671       0.76631897      -0.28114000       0.04205000       0.12815000
Si      -1.26124732       0.07214671      -0.76631897       0.28114000      -0.04205000      -0.12815000
2
Lattice="2.509317 -2.418165 -1.154357 -2.4437 2.459662 -1.109383 2.508088 2.482552 1.033271" Properties=species:S:1:pos:R:3:dft_force:R:3 config_type=bt dft_energy=-325.17637 dft_virial="0.432175 -0.104477 0.624892 -0.104477 0.919025 0.0898225 0.624892 0.0898225 7.93473" cutoff=-1.0 nneightol=1.2 pbc="T T T"
Si       1.19593715      -0.05737607       1.02190243       0.20217000       0.20731000       0.03070000
Si      -1.19593715       0.05737607      -1.02190243      -0.20217000      -0.20731000      -0.03070000
2
Lattice="2.180923 -2.740376 -1.145371 -2.283433 2.651304 -1.169718 2.128578 2.585521 1.334062" Properties=species:S:1:pos:R:3:dft_force:R:3 config_type=bt dft_energy=-324.870662 dft_virial="6.29684 0.0430141 -1.12797 0.0430141 -0.228634 -0.146145 -1.12797 -0.146145 7.54907" cutoff=-1.0 nneightol=1.2 pbc="T T T"
Si       1.08224509      -0.04626950       0.72572367       1.08879000      -0.13524000      -0.45889000
Si      -1.08224509       0.04626950      -0.72572367      -1.08879000       0.13524000       0.45889000
2
Lattice="2.43206 -2.561707 -1.43255 -2.166984 2.492125 -0.81557 2.294313 2.689036 0.943826" Properties=species:S:1:pos:R:3:dft_force:R:3 config_type=bt dft_energy=-324.975745 dft_virial="3.78411 -0.0629002 -0.0344774 -0.0629002 -0.0447092 0.0710269 -0.0344774 0.0710269 8.08824" cutoff=-1.0 nneightol=1.2 pbc="T T T"
Si       1.05555858       0.04662640       0.60374541       0.19420000      -0.00048000      -0.04671000
Si      -1.05555858      -0.04662640      -0.60374541      -0.19420000       0.00048000       0.04671000
2
Lattice="2.087818 -2.153237 -1.21363 -2.185619 2.076161 -1.252206 2.495096 2.462714 1.393948" Properties=species:S:1:pos:R:3:dft_force:R:3 config_type=bt dft_energy=-325.052148 dft_virial="2.84345 -1.06345 -0.389404 -1.06345 7.68822 -0.864786 -0.389404 -0.864786 3.75182" cutoff=-1.0 nneightol=1.2 pbc="T T T"
Si       1.19326688       0.14156747       0.80333562       0.03354000      -1.57588000       0.19784000
Si      -1.19326688      -0.14156747      -0.80333562      -0.03354000       1.57588000      -0.19784000
2
Lattice="2.176968 -2.094023 -1.388627 -2.133881 1.915517 -0.979503 2.596901 2.557043 1.308828" Properties=species:S:1:pos:R:3:dft_force:R:3 config_type=bt dft_energy=-324.877388 dft_virial="4.41108 -0.733397 -0.0453682 -0.733397 5.15633 -0.581838 -0.0453682 -0.581838 5.86767" cutoff=-1.0 nneightol=1.2 pbc="T T T"
Si       1.10940318       0.13216185       1.00281535       1.04000000       0.69470000      -0.12959000
Si      -1.10940318      -0.13216185      -1.00281535      -1.04000000      -0.69470000       0.12959000
2
Lattice="2.430848 -2.528283 -1.284729 -2.314036 2.514895 -1.044525 2.415227 2.629474 1.069456" Properties=species:S:1:pos:R:3:dft_force:R:3 config_type=bt dft_energy=-325.317474 dft_virial="1.50346 -0.130856 0.7592 -0.130856 -0.60115 -0.10827 0.7592 -0.10827 5.31617" cutoff=-1.0 nneightol=1.2 pbc="T T T"
Si       1.15994017      -0.01121149       0.87064869      -0.11073000      -0.01274000      -0.12453000
Si      -1.15994017       0.01121149      -0.87064869       0.11073000       0.01274000       0.12453000
2
Lattice="2.370059 -2.372259 -0.918017 -2.551938 2.398547 -1.302415 2.509021 2.329341 1.254079" Properties=species:S:1:pos:R:3:dft_force:R:3 config_type=bt dft_energy=-324.7844 dft_virial="3.19125 0.0172195 -0.0757892 0.0172195 2.59667 0.121506 -0.0757892 0.121506 9.8848" cutoff=-1.0 nneightol=1.2 pbc="T T T"
Si       1.35637058      -0.06143436       1.08325685      -0.56751000       0.40154000      -0.05444000
Si      -1.35637058       0.06143436      -1.08325685       0.56751000      -0.40154000       0.05444000
2
Lattice="1.986941 -2.079206 -1.324418 -1.915117 2.174673 -1.367926 1.951539 2.115628 1.191922" Properties=species:S:1:pos:R:3:dft_force:R:3 config_type=bt dft_energy=-323.658032 dft_virial="15.4709 0.420735 2.25671 0.420735 12.6084 1.88416 2.25671 1.88416 5.41363" cutoff=-1.0 nneightol=1.2 pbc="T T T"
Si       0.97658176      -0.06841512       0.90882500      -2.18715000       2.44243000      -1.15828000
Si      -0.97658176       0.06841512      -0.90882500       2.18715000      -2.44243000       1.15828000
2
Lattice="2.481646 -2.545236 -1.280615 -2.510144 2.525716 -1.297008 2.051516 2.086608 1.333206" Properties=species:S:1:pos:R:3:dft_force:R:3 config_type=bt dft_energy=-325.18298 dft_virial="5.85005 1.03042 -0.155872 1.03042 2.07446 0.157194 -0.155872 0.157194 1.64036" cutoff=-1.0 nneightol=1.2 pbc="T T T"
Si       1.14441952      -0.13612159       1.13080749       0.06782000       0.09564000      -0.20135000
Si      -1.14441952       0.13612159      -1.13080749      -0.06782000      -0.09564000       0.20135000
2
Lattice="2.48753 -2.287514 -1.258272 -2.485649 2.274203 -1.230553 2.414811 2.216675 1.25494" Properties=species:S:1:pos:R:3:dft_force:R:3 config_type=bt dft_energy=-325.460995 dft_virial="0.893587 0.343797 0.0107034 0.343797 4.20058 -0.520312 0.0107034 -0.520312 3.35729" cutoff=-1.0 nneightol=1.2 pbc="T T T"
Si       1.25269371       0.02192243       0.99936215      -0.21591000      -0.82334000       0.29964000
Si      -1.25269371      -0.02192243      -0.99936215       0.21591000       0.82334000      -0.29964000
2
Lattice="1.97301 -2.205487 -1.056096 -2.060187 2.358225 -1.498971 2.188357 2.333657 1.217009" Properties=species:S:1:pos:R:3:dft_force:R:3 config_type=bt dft_energy=-324.997453 dft_virial="6.54232 -0.620687 -1.50568 -0.620687 4.95293 0.81089 -1.50568 0.81089 4.22294" cutoff=-1.0 nneightol=1.2 pbc="T T T"
Si       1.05951353      -0.01858690       0.79339778       0.73128000       0.38223000      -0.42940000
Si      -1.05951353       0.01858690      -0.79339778      -0.73128000      -0.38223000       0.42940000
2
Lattice="2.470514 -2.489674 -1.349701 -2.482705 2.456397 -1.310686 2.218396 2.225365 1.372254" Properties=species:S:1:pos:R:3:dft_force:R:3 config_type=bt dft_energy=-325.550636 dft_virial="1.17844 1.5966 -0.107853 1.5966 2.1524 -0.167718 -0.107853 -0.167718 0.461419" cutoff=-1.0 nneightol=1.2 pbc="T T T"
Si       1.18686103      -0.07994791       0.95746092      -0.06070000       0.33497000       0.10834000
Si      -1.18686103       0.07994791      -0.95746092       0.06070000      -0.33497000      -0.10834000
2
Lattice="2.22414 -2.396721 -1.343812 -2.27135 2.243442 -1.147837 2.412738 2.538108 1.431137" Properties=species:S:1:pos:R:3:dft_force:R:3 config_type=bt dft_energy=-325.410779 dft_virial="1.55807 -0.420617 0.125446 -0.420617 2.68063 -0.908118 0.125446 -0.908118 2.82338" cutoff=-1.0 nneightol=1.2 pbc="T T T"
Si       1.20393961       0.02386592       0.81907231      -0.19688000       0.79342000       0.15335000
Si      -1.20393961      -0.02386592      -0.81907231       0.19688000      -0.79342000      -0.15335000
2
Lattice="2.374839 -2.289984 -1.07041 -2.456459 2.242896 -1.133525 2.531598 2.365123 1.220962" Properties=species:S:1:pos:R:3:dft_force:R:3 config_type=bt dft_energy=-324.591641 dft_virial="2.47128 -0.0504212 -0.374821 -0.0504212 5.31861 0.585112 -0.374821 0.585112 12.1237" cutoff=-1.0 nneightol=1.2 pbc="T T T"
Si       1.23142755      -0.05738202       0.96464801       0.33588000       1.54010000       0.24700000
Si      -1.23142755       0.05738202      -0.96464801      -0.33588000      -1.54010000      -0.24700000
2
Lattice="2.320555 -2.492626 -1.588289 -2.119669 2.291197 -0.845034 2.284019 2.656976 1.217408" Properties=species:S:1:pos:R:3:dft_force:R:3 config_type=bt dft_energy=-325.224523 dft_virial="2.59995 -0.377313 0.465307 -0.377313 2.36712 -0.544492 0.465307 -0.544492 3.17546" cutoff=-1.0 nneightol=1.2 pbc="T T T"
Si       1.08575593       0.00342474       0.65346815      -0.36911000       0.75455000       0.00739000
Si      -1.08575593      -0.00342474      -0.65346815       0.36911000      -0.75455000      -0.00739000
2
Lattice="2.389293 -2.082987 -0.768694 -2.477731 2.429559 -1.572287 2.696257 2.301512 0.932259" Properties=species:S:1:pos:R:3:dft_force:R:3 config_type=bt dft_energy=-325.169081 dft_virial="0.839299 -0.204602 -0.0217248 -0.204602 4.16137 0.383748 -0.0217248 0.383748 4.90871" cutoff=-1.0 nneightol=1.2 pbc="T T T"
Si       1.37174228      -0.05942710       1.05780635      -0.16736000      -0.19095000      -0.04501000
Si      -1.37174228       0.05942710      -1.05780635       0.16736000       0.19095000       0.04501000
2
Lattice="2.341017 -2.490153 -1.160149 -2.39409 2.402706 -1.096171 2.270712 2.366775 1.257968" Properties=species:S:1:pos:R:3:dft_force:R:3 config_type=bt dft_energy=-324.755473 dft_virial="5.66954 0.20792 -1.07061 0.20792 3.39486 -0.45175 -1.07061 -0.45175 9.98119" cutoff=-1.0 nneightol=1.2 pbc="T T T"
Si       1.10140924      -0.00121976       0.82128469       1.57812000      -0.12637000      -0.28188000
Si      -1.10140924       0.00121976      -0.82128469      -1.57812000       0.12637000       0.28188000
2
Lattice="2.675087 -2.194297 -0.965392 -2.55921 2.430441 -1.188194 2.476385 2.111472 0.751128" Properties=species:S:1:pos:R:3:dft_force:R:3 config_type=bt dft_energy=-324.331611 dft_virial="1.22546 -0.0930472 -0.476464 -0.0930472 6.44246 0.0283354 -0.476464 0.0283354 13.225" cutoff=-1.0 nneightol=1.2 pbc="T T T"
Si       1.26068230      -0.08839706       0.88326355      -0.05241000      -0.13077000      -0.01790000
Si      -1.26068230       0.08839706      -0.88326355       0.05241000       0.13077000       0.01790000
2
Lattice="2.657937 -2.376989 -1.010904 -2.643452 2.5107 -1.231139 2.459587 2.193123 0.983722" Properties=species:S:1:pos:R:3:dft_force:R:3 config_type=bt dft_energy=-324.994661 dft_virial="0.89664 0.180535 0.0697867 0.180535 2.64194 0.233565 0.0697867 0.233565 9.19965" cutoff=-1.0 nneightol=1.2 pbc="T T T"
Si       1.19083273      -0.09421007       1.00704390       0.37462000       0.02736000       0.01368000
Si      -1.19083273       0.09421007      -1.00704390      -0.37462000      -0.02736000      -0.01368000
2
Lattice="2.312722 -2.279286 -1.210476 -2.352745 2.267305 -1.26269 2.34779 2.274332 1.284819" Properties=species:S:1:pos:R:3:dft_force:R:3 config_type=bt dft_energy=-325.353253 dft_virial="3.77203 0.0343742 0.00326507 0.0343742 4.18088 -0.180467 0.00326507 -0.180467 4.27384" cutoff=-1.0 nneightol=1.2 pbc="T T T"
Si       1.23849715       0.01050090       0.96355399      -0.87931000      -0.19162000       0.01244000
Si      -1.23849715      -0.01050090      -0.96355399       0.87931000       0.19162000      -0.01244000
2
Lattice="2.262334 -2.447408 -1.309932 -2.211016 2.373384 -1.077639 2.294676 2.531068 1.214896" Properties=species:S:1:pos:R:3:dft_force:R:3 config_type=bt dft_energy=-325.321886 dft_virial="2.7993 -0.249115 0.172442 -0.249115 2.20852 -0.677353 0.172442 -0.677353 5.16047" cutoff=-1.0 nneightol=1.2 pbc="T T T"
Si       1.10423399      -0.02026991       0.69487800       0.09604000       0.72561000      -0.01613000
Si      -1.10423399       0.02026991      -0.69487800      -0.09604000      -0.72561000       0.01613000
2
Lattice="2.205806 -2.00824 -1.175356 -2.244486 2.130469 -1.472786 2.323046 2.086799 1.247067" Properties=species:S:1:pos:R:3:dft_force:R:3 config_type=bt dft_energy=-324.433778 dft_virial="3.94002 -0.223425 -0.139713 -0.223425 14.0178 3.47608 -0.139713 3.47608 3.2729" cutoff=-1.0 nneightol=1.2 pbc="T T T"
Si       1.17344747      -0.09636829       0.99102803       0.01682000       4.96714000       1.34291000
Si      -1.17344747       0.09636829      -0.99102803      -0.01682000      -4.96714000      -1.34291000
2
Lattice="2.337836 -2.317227 -1.293541 -2.292535 2.266395 -1.115692 2.296265 2.320957 1.209721" Properties=species:S:1:pos:R:3:dft_force:R:3 config_type=bt dft_energy=-325.282317 dft_virial="4.32168 -0.100748 0.459537 -0.100748 3.8823 -0.427417 0.459537 -0.427417 5.52982" cutoff=-1.0 nneightol=1.2 pbc="T T T"
Si       1.13816894       0.02346969       0.93738083      -0.07430000      -0.19082000       0.00356000
Si      -1.13816894      -0.02346969      -0.93738083       0.07430000       0.19082000      -0.00356000
2
Lattice="2.13065 -2.177551 -1.541843 -2.043506 2.00132 -1.05386 2.250061 2.384106 1.380619" Properties=species:S:1:pos:R:3:dft_force:R:3 config_type=bt dft_energy=-324.25527 dft_virial="3.62553 -0.287642 0.596959 -0.287642 13.4103 1.52369 0.596959 1.52369 3.4592" cutoff=-1.0 nneightol=1.2 pbc="T T T"
Si       1.06082990      -0.02519197       0.76354156       0.03837000       5.19865000       1.10322000
Si      -1.06082990       0.02519197      -0.76354156      -0.03837000      -5.19865000      -1.10322000
2
Lattice="2.255819 -2.444194 -0.889081 -2.454506 2.461636 -1.288575 2.367359 2.357047 1.256566" Properties=species:S:1:pos:R:3:dft_force:R:3 config_type=bt dft_energy=-324.375799 dft_virial="6.33802 -0.195319 -0.218057 -0.195319 3.63222 0.311255 -0.218057 0.311255 12.863" cutoff=-1.0 nneightol=1.2 pbc="T T T"
Si       1.21229310      -0.07989057       0.89803963       1.07788000       0.51722000      -0.18122000
Si      -1.21229310       0.07989057      -0.89803963      -1.07788000      -0.51722000       0.18122000
2
Lattice="2.414126 -2.607426 -0.966934 -2.413533 2.780884 -1.287139 2.203728 2.397622 0.965922" Properties=species:S:1:pos:R:3:dft_force:R:3 config_type=bt dft_energy=-324.973312 dft_virial="3.07289 0.244275 -0.0178084 0.244275 0.440646 0.0441502 -0.0178084 0.0441502 8.23295" cutoff=-1.0 nneightol=1.2 pbc="T T T"
Si       1.16802265      -0.04438753       0.75764648      -0.23933000      -0.15394000      -0.00613000
Si      -1.16802265       0.04438753      -0.75764648       0.23933000       0.15394000       0.00613000
2
Lattice="2.719103 -2.577539 -1.025148 -2.874195 2.559545 -1.276684 2.644334 2.347678 1.309574" Properties=species:S:1:pos:R:3:dft_force:R:3 config_type=bt dft_energy=-325.179164 dft_virial="-1.04408 0.380848 -0.504146 0.380848 0.159365 -0.0122494 -0.504146 -0.0122494 5.201" cutoff=-1.0 nneightol=1.2 pbc="T T T"
Si       1.33615856      -0.02850838       1.17263489       0.03526000      -0.07138000      -0.09473000
Si      -1.33615856       0.02850838      -1.17263489      -0.03526000       0.07138000       0.09473000
2
Lattice="2.433312 -2.840644 -1.438084 -2.240106 2.782618 -0.974513 1.818199 2.418737 1.082287" Properties=species:S:1:pos:R:3:dft_force:R:3 config_type=bt dft_energy=-324.864895 dft_virial="6.91877 0.685505 1.57685 0.685505 0.729792 0.00075823 1.57685 0.00075823 4.87232" cutoff=-1.0 nneightol=1.2 pbc="T T T"
Si       0.98575633      -0.17132783       0.66051134      -1.00515000       0.12543000      -0.50616000
Si      -0.98575633       0.17132783      -0.66051134       1.00515000      -0.12543000       0.50616000
2
Lattice="2.415823 -2.137484 -1.626437 -2.287568 1.979007 -1.097238 2.431142 2.281058 1.389861" Properties=species:S:1:pos:R:3:dft_force:R:3 config_type=bt dft_energy=-325.215377 dft_virial="1.04233 -0.927728 0.610491 -0.927728 5.85464 -0.256745 0.610491 -0.256745 1.97179" cutoff=-1.0 nneightol=1.2 pbc="T T T"
Si       1.10970647       0.02331996       1.01418675       0.05057000       0.93635000       0.76797000
Si      -1.10970647      -0.02331996      -1.01418675      -0.05057000      -0.93635000      -0.76797000
2
Lattice="2.30398 -2.448687 -1.515751 -2.085598 2.509758 -1.226641 2.027043 2.390132 1.113983" Properties=species:S:1:pos:R:3:dft_force:R:3 config_type=bt dft_energy=-325.370056 dft_virial="4.33172 0.498105 2.0294 0.498105 0.619934 0.507553 2.0294 0.507553 1.07616" cutoff=-1.0 nneightol=1.2 pbc="T T T"
Si       1.01294396      -0.00976394       0.76845496      -1.28241000      -0.01221000      -0.52449000
Si      -1.01294396       0.00976394      -0.76845496       1.28241000       0.01221000       0.52449000
2
Lattice="2.238558 -2.383314 -1.025892 -2.217465 2.549575 -1.293 2.691428 2.857277 0.987729" Properties=species:S:1:pos:R:3:dft_force:R:3 config_type=bt dft_energy=-325.201058 dft_virial="0.494355 -0.746442 0.35691 -0.746442 -1.05548 -0.167734 0.35691 -0.167734 4.45767" cutoff=-1.0 nneightol=1.2 pbc="T T T"
Si       1.27133918       0.00778605       0.86604767      -0.39579000      -0.10081000       0.10198000
Si      -1.27133918      -0.00778605      -0.86604767       0.39579000       0.10081000      -0.10198000
2
Lattice="2.472878 -2.546252 -1.399848 -2.408969 2.494292 -1.185644 2.226096 2.363378 1.281819" Properties=species:S:1:pos:R:3:dft_force:R:3 config_type=bt dft_energy=-325.601084 dft_virial="0.844054 0.98687 0.264981 0.98687 0.757219 -0.256778 0.264981 -0.256778 1.00923" cutoff=-1.0 nneightol=1.2 pbc="T T T"
Si       1.12012552      -0.07264371       0.85484352       0.22487000       0.50746000       0.02626000
Si      -1.12012552       0.07264371      -0.85484352      -0.22487000      -0.50746000      -0.02626000
2
Lattice="2.246407 -1.972442 -1.37921 -2.405797 1.84244 -1.434075 2.603947 2.170592 1.673053" Properties=species:S:1:pos:R:3:dft_force:R:3 config_type=bt dft_energy=-325.053108 dft_virial="2.66857 -0.396252 -0.964733 -0.396252 7.20149 -1.40365 -0.964733 -1.40365 2.53847" cutoff=-1.0 nneightol=1.2 pbc="T T T"
Si       1.35153736       0.13776079       1.67520072      -0.42674000       1.11753000      -1.05245000
Si      -1.35153736      -0.13776079      -1.67520072       0.42674000      -1.11753000       1.05245000
2