4
Lattice="3.78663082 -0.060166 0.03064761 0.13248398 3.9346043 0.09739188 -0.09665946 -0.073315 3.81253553" Properties=species:S:1:pos:R:3:dft_force:R:3 config_type=fcc Minim_Constant_Volume=T dft_virial="1.25481323 0.40165497 -0.30942933 0.40165497 2.11366159 0.37013004 -0.30942933 0.37013004 1.52363367" dft_energy=-650.24507815 cutoff=-1.0 nneightol=1.2 pbc="T T T"
Si       0.04967159      -0.01382515       0.06476893       0.54934000      -0.34272000      -0.04054000
Si       2.09139166       1.91567189      -0.02341231      -0.53198000       0.30507000      -0.21860000
Si       2.09700687       0.07674364       1.89214057      -0.56477000      -0.28369000       0.17294000
Si       0.05425717       1.89274383       1.89251255       0.54741000       0.32134000       0.08620000
4
Lattice="4.0378871 -0.0459612 -0.04190116 0.09561791 3.95941253 -0.0090371 0.01664849 -0.13790496 3.96273315" Properties=species:S:1:pos:R:3:dft_force:R:3 config_type=fcc Minim_Constant_Volume=T dft_virial="-1.59448129 0.11519312 0.15289404 0.11519312 -1.38073293 0.27379937 0.15289404 0.27379937 -1.60446283" dft_energy=-650.25157072 cutoff=-1.0 nneightol=1.2 pbc="T T T"
Si       0.04967071      -0.01382762       0.06476803       0.06992000      -0.36790000      -0.10594000
Si       2.09139170       1.91567367      -0.02341499      -0.04356000       0.12161000      -0.13557000
Si       2.09700765       0.07674204       1.89213796       0.01453000       0.00209000       0.12458000
Si       0.05425498       1.89274516       1.89251209      -0.04089000       0.24420000       0.11693000
4
Lattice="3.90313704 0.09133991 -0.06061665 -0.01484836 3.98046276 -0.02131755 0.02780919 -0.06731153 3.80974382" Properties=species:S:1:pos:R:3:dft_force:R:3 config_type=fcc Minim_Constant_Volume=T dft_virial="0.16913291 0.01266392 0.18703073 0.01266392 0.48947913 0.36254696 0.18703073 0.36254696 -0.16090299" dft_energy=-650.29904771 cutoff=-1.0 nneightol=1.2 pbc="T T T"
Si       0.04966987      -0.01382674       0.06476987       0.25007000      -0.29741000      -0.05858000
Si       2.09138907       1.91567166      -0.02341343      -0.21891000       0.22450000      -0.07598000
Si       2.09700906       0.07674153       1.89213906      -0.22157000      -0.20418000       0.05206000
Si       0.05425730       1.89274625       1.89251214       0.19041000       0.27709000       0.08250000
4
Lattice="3.98590314 -0.03176744 0.03345413 -0.08088513 3.90120981 -0.10481619 0.04181387 0.09504191 3.84874199" Properties=species:S:1:pos:R:3:dft_force:R:3 config_type=fcc Minim_Constant_Volume=T dft_virial="0.18724735 -0.17444925 -0.25059026 -0.17444925 -0.28968299 0.12020829 -0.25059026 0.12020829 -0.83036317" dft_energy=-650.32346537 cutoff=-1.0 nneightol=1.2 pbc="T T T"
Si       0.04967008      -0.01382420       0.06477027       0.08577000      -0.21180000      -0.06127000
Si       2.09138839       1.91567343      -0.02341553      -0.03286000       0.22699000      -0.16458000
Si       2.09700730       0.07674172       1.89214081      -0.17899000      -0.13028000       0.07594000
Si       0.05425567       1.89274433       1.89251284       0.12608000       0.11509000       0.14991000
4
Lattice="3.79549243 -0.01452245 -0.09262088 0.02369703 3.83659983 0.04455933 0.04622234 -0.06197173 3.97463375" Properties=species:S:1:pos:R:3:dft_force:R:3 config_type=fcc Minim_Constant_Volume=T dft_virial="0.70003052 0.26423326 0.16027644 0.26423326 1.28848654 -0.12026742 0.16027644 -0.12026742 1.25018993" dft_energy=-650.24607611 cutoff=-1.0 nneightol=1.2 pbc="T T T"
Si       0.04967178      -0.01382526       0.06476839       0.48408000      -0.20302000      -0.23033000
Si       2.09139153       1.91567144      -0.02341395      -0.52302000       0.09835000      -0.32918000
Si       2.09700772       0.07674373       1.89214018      -0.49692000      -0.11122000       0.27806000
Si       0.05425473       1.89274431       1.89251231       0.53586000       0.21589000       0.28145000
4
Lattice="3.93066087 0.14799607 -0.01084914 -0.06083689 3.96776336 0.01940664 0.16200998 0.0721342 3.78030623" Properties=species:S:1:pos:R:3:dft_force:R:3 config_type=fcc Minim_Constant_Volume=T dft_virial="0.3454008 0.03444917 -0.50934872 0.03444917 0.59835968 -0.24303935 -0.50934872 -0.24303935 -0.27314146" dft_energy=-650.30159983 cutoff=-1.0 nneightol=1.2 pbc="T T T"
Si       0.04967217      -0.01382772       0.06476870       0.26404000      -0.27641000       0.04120000
Si       2.09138837       1.91567329      -0.02341325      -0.18792000       0.23656000      -0.06238000
Si       2.09700966       0.07674270       1.89213760      -0.29018000      -0.22176000       0.11434000
Si       0.05425696       1.89274535       1.89251516       0.21406000       0.26161000      -0.09317000
4
Lattice="3.90907696 0.04646438 0.03414713 -0.14193795 3.87544106 0.0085114 -0.06747965 0.06715939 4.03191502" Properties=species:S:1:pos:R:3:dft_force:R:3 config_type=fcc Minim_Constant_Volume=T dft_virial="-0.68587429 0.16830478 0.00538026 0.16830478 -0.59489539 -0.16416078 0.00538026 -0.16416078 -0.18726864" dft_energy=-650.27610222 cutoff=-1.0 nneightol=1.2 pbc="T T T"
Si       0.04967104      -0.01382542       0.06476981       0.12839000      -0.11260000      -0.19951000
Si       2.09139037       1.91567269      -0.02341583      -0.14592000       0.11701000      -0.31019000
Si       2.09700965       0.07674370       1.89214076      -0.25110000      -0.11451000       0.26546000
Si       0.05425685       1.89274602       1.89251403       0.26863000       0.11010000       0.24424000
4
Lattice="3.97476683 -0.09906999 -0.02102468 -0.05876754 3.93370212 0.09770918 0.09914495 -0.05897051 3.92070647" Properties=species:S:1:pos:R:3:dft_force:R:3 config_type=fcc Minim_Constant_Volume=T dft_virial="-0.59016919 0.18305262 0.09356304 0.18305262 -0.54787518 0.12633866 0.09356304 0.12633866 -0.85480018" dft_energy=-650.30151238 cutoff=-1.0 nneightol=1.2 pbc="T T T"
Si       0.04966989      -0.01382646       0.06476864       0.08364000      -0.25813000      -0.03118000
Si       2.09139088       1.91567342      -0.02341271      -0.03136000       0.22339000      -0.23601000
Si       2.09700808       0.07674282       1.89213911      -0.25258000      -0.10344000       0.18412000
Si       0.05425569       1.89274623       1.89251223       0.20030000       0.13818000       0.08307000
4
Lattice="3.86719661 -0.05962186 -0.04123172 0.07805856 3.86440732 0.00089175 0.00940309 0.01808448 3.98966905" Properties=species:S:1:pos:R:3:dft_force:R:3 config_type=fcc Minim_Constant_Volume=T dft_virial="0.32348651 0.22040031 0.04255423 0.22040031 0.17787363 0.02689197 0.04255423 0.02689197 0.08725902" dft_energy=-650.28574431 cutoff=-1.0 nneightol=1.2 pbc="T T T"
Si       0.04967043      -0.01382696       0.06476900       0.28785000      -0.21575000      -0.17925000
Si       2.09138816       1.91567110      -0.02341237      -0.29233000       0.17769000      -0.27641000
Si       2.09700897       0.07674113       1.89213752      -0.29142000      -0.11855000       0.23710000
Si       0.05425541       1.89274684       1.89251401       0.29590000       0.15660000       0.21856000
4
Lattice="3.83180099 0.0551244 0.08491413 0.05515017 3.82303824 -0.12397363 0.1155084 -0.14355688 3.92416785" Properties=species:S:1:pos:R:3:dft_force:R:3 config_type=fcc Minim_Constant_Volume=T dft_virial="0.94770335 0.15433117 -0.26540731 0.15433117 0.6935622 0.13156648 -0.26540731 0.13156648 2.17416369" dft_energy=-650.27729849 cutoff=-1.0 nneightol=1.2 pbc="T T T"
Si       0.04966932      -0.01382505       0.06476749       0.57104000      -0.22409000      -0.32193000
Si       2.09139139       1.91567122      -0.02341361      -0.36023000       0.02250000      -0.10644000
Si       2.09700886       0.07674329       1.89213997      -0.53793000      -0.00711000       0.25632000
Si       0.05425709       1.89274350       1.89251499       0.32712000       0.20869000       0.17205000
4
Lattice="3.87995975 0.02750318 -0.13645554 0.03629796 3.84307799 0.06140101 0.00641636 0.0477451 3.91435516" Properties=species:S:1:pos:R:3:dft_force:R:3 config_type=fcc Minim_Constant_Volume=T dft_virial="0.71754164 -0.00476475 -0.01667007 -0.00476475 0.26855345 -0.01352319 -0.01667007 -0.01352319 0.93370653" dft_energy=-650.29460816 cutoff=-1.0 nneightol=1.2 pbc="T T T"
Si       0.04967011      -0.01382529       0.06476789       0.27659000      -0.11107000      -0.15226000
Si       2.09139172       1.91567108      -0.02341486      -0.36392000       0.14844000      -0.32217000
Si       2.09700796       0.07674424       1.89214059      -0.19622000      -0.07764000       0.27072000
Si       0.05425745       1.89274433       1.89251398       0.28355000       0.04027000       0.20371000
4
Lattice="3.91353504 -0.12464578 -0.02341453 0.19879526 3.92273701 -0.13056032 -0.08178695 -0.09507664 3.8355459" Properties=species:S:1:pos:R:3:dft_force:R:3 config_type=fcc Minim_Constant_Volume=T dft_virial="0.20215696 0.10015928 0.16797692 0.10015928 0.625398 -0.08547308 0.16797692 -0.08547308 0.1998243" dft_energy=-650.31160952 cutoff=-1.0 nneightol=1.2 pbc="T T T"
Si       0.04967191      -0.01382712       0.06476831       0.17885000      -0.37750000      -0.13181000
Si       2.09139030       1.91567226      -0.02341259      -0.22567000       0.23796000      -0.01623000
Si       2.09700982       0.07674170       1.89213750      -0.14039000      -0.13577000       0.05292000
Si       0.05425518       1.89274480       1.89251246       0.18721000       0.27531000       0.09512000
4
Lattice="4.00356204 0.04175576 -0.00021368 -0.02895256 3.98696785 0.03581398 -0.03735194 -0.00132414 3.91153089" Properties=species:S:1:pos:R:3:dft_force:R:3 config_type=fcc Minim_Constant_Volume=T dft_virial="-1.55582751 -0.08539674 -0.00317705 -0.08539674 -1.23773323 -0.08847557 -0.00317705 -0.08847557 -0.85576014" dft_energy=-650.26990969 cutoff=-1.0 nneightol=1.2 pbc="T T T"
Si       0.04967297      -0.01382768       0.06476873       0.00668000      -0.21800000      -0.04338000
Si       2.09138988       1.91567159      -0.02341387      -0.05918000       0.15075000      -0.23250000
Si       2.09700775       0.07674244       1.89213725      -0.01727000      -0.09178000       0.15279000
Si       0.05425592       1.89274316       1.89251552       0.06978000       0.15903000       0.12309000
4
Lattice="3.82422735 -0.0112014 0.08089342 0.04044296 3.79348906 0.06760297 -0.08355401 -0.14045548 3.88825233" Properties=species:S:1:pos:R:3:dft_force:R:3 config_type=fcc Minim_Constant_Volume=T dft_virial="1.91669537 -0.06649712 -0.33719663 -0.06649712 1.34011734 -0.09881941 -0.33719663 -0.09881941 2.13241837" dft_energy=-650.25507698 cutoff=-1.0 nneightol=1.2 pbc="T T T"
Si       0.04967025      -0.01382677       0.06476754       0.45167000      -0.17962000      -0.25718000
Si       2.09138853       1.91567325      -0.02341326      -0.39954000       0.05649000      -0.23158000
Si       2.09700620       0.07674322       1.89213948      -0.47820000      -0.04519000       0.24926000
Si       0.05425733       1.89274463       1.89251211       0.42607000       0.16832000       0.23951000
4
Lattice="3.92269914 0.0174214 0.10893061 0.11010598 3.88942006 -0.01826669 -0.07752714 0.1457415 3.90706535" Properties=species:S:1:pos:R:3:dft_force:R:3 config_type=fcc Minim_Constant_Volume=T dft_virial="0.03619051 -0.01154924 -0.68276052 -0.01154924 0.20469435 -0.03731074 -0.68276052 -0.03731074 -0.09057568" dft_energy=-650.31199663 cutoff=-1.0 nneightol=1.2 pbc="T T T"
Si       0.04967131      -0.01382527       0.06476739       0.18633000      -0.18148000      -0.07074000
Si       2.09139029       1.91567152      -0.02341410      -0.21080000       0.29071000      -0.28441000
Si       2.09700615       0.07674468       1.89213870      -0.10033000      -0.14195000       0.14085000
Si       0.05425446       1.89274671       1.89251311       0.12479000       0.03273000       0.21431000
4
Lattice="3.8547404 -0.04182659 0.1182084 -0.10668754 3.86092535 0.12858878 -0.10728494 -0.09712905 3.71871817" Properties=species:S:1:pos:R:3:dft_force:R:3 config_type=fcc Minim_Constant_Volume=T dft_virial="2.8377317 0.01996969 -0.18343337 0.01996969 2.5023434 0.23977949 -0.18343337 0.23977949 1.94610019" dft_energy=-650.25581528 cutoff=-1.0 nneightol=1.2 pbc="T T T"
Si       0.04966959      -0.01382599       0.06476927       0.41202000      -0.19638000       0.04159000
Si       2.09139167       1.91567126      -0.02341425      -0.44050000       0.19485000       0.00056000
Si       2.09700627       0.07674474       1.89214008      -0.50786000      -0.23580000      -0.02150000
Si       0.05425520       1.89274538       1.89251236       0.53634000       0.23733000      -0.02064000
4
Lattice="3.92568396 0.08109374 -0.10862024 0.01675211 3.8033846 -0.00942728 -0.08362015 -0.00644379 3.97401996" Properties=species:S:1:pos:R:3:dft_force:R:3 config_type=fcc Minim_Constant_Volume=T dft_virial="-0.06860166 -0.2894132 -0.07149727 -0.2894132 -0.39616225 0.20520395 -0.07149727 0.20520395 0.48127268" dft_energy=-650.31287879 cutoff=-1.0 nneightol=1.2 pbc="T T T"
Si       0.04967117      -0.01382724       0.06476952       0.18043000      -0.12210000      -0.21702000
Si       2.09139110       1.91567349      -0.02341337      -0.30623000       0.07251000      -0.29183000
Si       2.09700880       0.07674341       1.89214014      -0.10428000      -0.00541000       0.26372000
Si       0.05425407       1.89274525       1.89251453       0.23007000       0.05501000       0.24513000
4
Lattice="3.9019879 0.03270205 -0.02449474 0.11959564 3.97522726 0.00998339 0.03780909 -0.01421173 3.94223448" Properties=species:S:1:pos:R:3:dft_force:R:3 config_type=fcc Minim_Constant_Volume=T dft_virial="-0.47420349 -0.0147898 -0.12388278 -0.0147898 -0.33485778 0.02901484 -0.12388278 0.02901484 -0.79902498" dft_energy=-650.27715676 cutoff=-1.0 nneightol=1.2 pbc="T T T"
Si       0.04967256      -0.01382486       0.06476817       0.27485000      -0.29622000      -0.09794000
Si       2.09138941       1.91567032      -0.02341320      -0.21367000       0.22131000      -0.21970000
Si       2.09700961       0.07674481       1.89213940      -0.15882000      -0.11804000       0.17190000
Si       0.05425685       1.89274450       1.89251564       0.09764000       0.19295000       0.14574000
4
Lattice="3.92304205 0.00764063 0.23750995 0.06911648 3.92239502 0.00257554 -0.09040686 -0.04257737 3.78106171" Properties=species:S:1:pos:R:3:dft_force:R:3 config_type=fcc Minim_Constant_Volume=T dft_virial="1.4194567 0.26429684 -0.41386758 0.26429684 0.64630391 0.00364127 -0.41386758 0.00364127 0.11435771" dft_energy=-650.31486381 cutoff=-1.0 nneightol=1.2 pbc="T T T"
Si       0.04967251      -0.01382456       0.06476732       0.39853000      -0.29931000      -0.06732000
Si       2.09139089       1.91567352      -0.02341215      -0.29132000       0.25641000      -0.15501000
Si       2.09700690       0.07674158       1.89213801      -0.37304000      -0.19078000       0.05305000
Si       0.05425454       1.89274566       1.89251459       0.26583000       0.23368000       0.16928000
4
Lattice="3.92180652 -0.19047961 -0.15368354 -0.08541435 3.74620527 -0.01160296 -0.07431162 -0.0458967 3.91586809" Properties=species:S:1:pos:R:3:dft_force:R:3 config_type=fcc Minim_Constant_Volume=T dft_virial="2.07981903 0.95139971 0.19061268 0.95139971 0.74353898 -0.41753317 0.19061268 -0.41753317 0.87763649" dft_energy=-650.28473737 cutoff=-1.0 nneightol=1.2 pbc="T T T"
Si       0.04967229      -0.01382739       0.06476859       0.44618000       0.07830000      -0.23811000
Si       2.09138915       1.91567115      -0.02341527      -0.62525000      -0.16982000      -0.20893000
Si       2.09700819       0.07674359       1.89213852      -0.33886000       0.06105000       0.21928000
Si       0.05425699       1.89274400       1.89251242       0.51793000       0.03047000       0.22776000
4
Lattice="3.7812961 -0.15712198 0.02408371 0.06261098 3.88772752 0.19944156 -0.10222638 -0.06456038 3.86617529" Properties=species:S:1:pos:R:3:dft_force:R:3 config_type=fcc Minim_Constant_Volume=T dft_virial="1.45710181 1.06360178 -0.09774984 1.06360178 2.3489763 0.33958009 -0.09774984 0.33958009 1.80360641" dft_energy=-650.23202302 cutoff=-1.0 nneightol=1.2 pbc="T T T"
Si       0.04967286      -0.01382559       0.06476740       0.49255000      -0.21653000      -0.11727000
Si       2.09138999       1.91567223      -0.02341406      -0.53198000       0.18532000      -0.37785000
Si       2.09700892       0.07674248       1.89214008      -0.67467000      -0.33855000       0.25967000
Si       0.05425638       1.89274474       1.89251426       0.71411000       0.36976000       0.23545000
4
Lattice="3.87962599 0.02904352 0.06693866 0.07974002 3.87857232 0.0719929 -0.01341701 0.12511326 3.82211097" Properties=species:S:1:pos:R:3:dft_force:R:3 config_type=fcc Minim_Constant_Volume=T dft_virial="0.85801719 0.11946579 -0.71283983 0.11946579 1.37540692 0.2127429 -0.71283983 0.2127429 0.85800392" dft_energy=-650.29712879 cutoff=-1.0 nneightol=1.2 pbc="T T T"
Si       0.04967279      -0.01382781       0.06476788       0.28932000      -0.19361000      -0.01149000
Si       2.09138901       1.91567313      -0.02341229      -0.28862000       0.25959000      -0.23709000
Si       2.09700811       0.07674476       1.89213975      -0.26351000      -0.10834000       0.15853000
Si       0.05425516       1.89274562       1.89251469       0.26281000       0.04236000       0.09006000
4
Lattice="3.93627071 -0.09301568 -0.01246544 -0.01451129 3.9738339 0.04812894 0.0856577 0.04899788 3.85208266" Properties=species:S:1:pos:R:3:dft_force:R:3 config_type=fcc Minim_Constant_Volume=T dft_virial="-0.29082158 -0.12352606 -0.16244232 -0.12352606 0.11336617 0.02083791 -0.16244232 0.02083791 -0.63722472" dft_energy=-650.30622633 cutoff=-1.0 nneightol=1.2 pbc="T T T"
Si       0.04967264      -0.01382556       0.06476854       0.18167000      -0.27512000      -0.01179000
Si       2.09138826       1.91567259      -0.02341390      -0.10693000       0.30016000      -0.21875000
Si       2.09700894       0.07674382       1.89213733      -0.29722000      -0.20449000       0.16877000
Si       0.05425496       1.89274311       1.89251539       0.22248000       0.17946000       0.06177000
4
Lattice="3.92548274 -0.05647278 -0.14791237 0.03134549 3.78781897 0.09426465 0.00288088 0.02623384 3.8318879" Properties=species:S:1:pos:R:3:dft_force:R:3 config_type=fcc Minim_Constant_Volume=T dft_virial="1.9429514 0.45223603 -0.19016765 0.45223603 0.42966513 -0.46975159 -0.19016765 -0.46975159 1.1165026" dft_energy=-650.31246787 cutoff=-1.0 nneightol=1.2 pbc="T T T"
Si       0.04967002      -0.01382485       0.06476984       0.25293000      -0.04826000      -0.10516000
Si       2.09138930       1.91567257      -0.02341240      -0.30187000       0.08177000      -0.19631000
Si       2.09700841       0.07674287       1.89213743      -0.18109000       0.00956000       0.15894000
Si       0.05425547       1.89274604       1.89251582       0.23003000      -0.04307000       0.14253000
4
Lattice="3.75490783 0.01074209 0.02881957 0.14075573 3.82921272 -0.12209321 0.19314675 0.03045223 3.83338695" Properties=species:S:1:pos:R:3:dft_force:R:3 config_type=fcc Minim_Constant_Volume=T dft_virial="2.32029911 -0.17035686 -0.44237575 -0.17035686 2.73201855 -0.43696015 -0.44237575 -0.43696015 3.20924146" dft_energy=-650.14339152 cutoff=-1.0 nneightol=1.2 pbc="T T T"
Si       0.04967171      -0.01382436       0.06477042       0.77985000      -0.24407000      -0.32691000
Si       2.09138932       1.91567009      -0.02341322      -0.72599000       0.15538000       0.15010000
Si       2.09700677       0.07674373       1.89213820      -0.76234000      -0.04968000       0.23938000
Si       0.05425432       1.89274380       1.89251489       0.70849000       0.13837000      -0.06257000
4
Lattice="3.89743072 0.02127107 0.15382626 -0.09872576 3.84398662 -0.1029497 0.07513948 0.1028612 3.92835863" Properties=species:S:1:pos:R:3:dft_force:R:3 config_type=fcc Minim_Constant_Volume=T dft_virial="0.69901503 0.2133307 -0.36045818 0.2133307 -0.02139328 0.31017611 -0.36045818 0.31017611 0.6664086" dft_energy=-650.29159738 cutoff=-1.0 nneightol=1.2 pbc="T T T"
Si       0.04966919      -0.01382436       0.06476747       0.40022000      -0.09106000      -0.21050000
Si       2.09138898       1.91567299      -0.02341599      -0.21433000       0.09772000      -0.25421000
Si       2.09700816       0.07674246       1.89213845      -0.48429000      -0.08922000       0.27805000
Si       0.05425481       1.89274632       1.89251513       0.29840000       0.08256000       0.18666000
4
Lattice="3.85979248 -0.00625733 0.02591268 -0.12078995 3.7568438 -0.0811071 -0.05222234 -0.06687289 3.97738298" Properties=species:S:1:pos:R:3:dft_force:R:3 config_type=fcc Minim_Constant_Volume=T dft_virial="0.72808477 0.63206515 -0.22126671 0.63206515 0.80071026 -0.10254244 -0.22126671 -0.10254244 1.60703901" dft_energy=-650.27724544 cutoff=-1.0 nneightol=1.2 pbc="T T T"
Si       0.04967261      -0.01382428       0.06476898       0.39391000      -0.00483000      -0.31517000
Si       2.09138923       1.91567072      -0.02341553      -0.41782000      -0.22948000      -0.32892000
Si       2.09700801       0.07674448       1.89213831      -0.39585000       0.07566000       0.31987000
Si       0.05425676       1.89274460       1.89251228       0.41976000       0.15866000       0.32422000
4
Lattice="3.84343705 -0.09768319 0.08971464 -0.05575145 3.93768215 -0.02056553 -0.02162315 0.01998348 3.71750963" Properties=species:S:1:pos:R:3:dft_force:R:3 config_type=fcc Minim_Constant_Volume=T dft_virial="2.05122634 0.16236097 -0.51138626 0.16236097 2.20243395 0.45235153 -0.51138626 0.45235153 1.50677006" dft_energy=-650.24585387 cutoff=-1.0 nneightol=1.2 pbc="T T T"
Si       0.04967012      -0.01382544       0.06477083       0.45117000      -0.28048000       0.03225000
Si       2.09139147       1.91567097      -0.02341569      -0.48971000       0.26280000       0.05191000
Si       2.09700750       0.07674317       1.89213791      -0.62317000      -0.33605000       0.00171000
Si       0.05425697       1.89274646       1.89251569       0.66171000       0.35373000      -0.08588000
4
Lattice="3.84589704 0.00305648 -0.03297876 0.02287633 3.86927364 0.08690086 0.09537257 0.15441145 3.82016492" Properties=species:S:1:pos:R:3:dft_force:R:3 config_type=fcc Minim_Constant_Volume=T dft_virial="0.94383248 -0.10318168 -0.34371935 -0.10318168 1.7615256 -0.00819504 -0.34371935 -0.00819504 1.72711445" dft_energy=-650.27788525 cutoff=-1.0 nneightol=1.2 pbc="T T T"
Si       0.04967036      -0.01382611       0.06477041       0.34340000      -0.16030000      -0.05256000
Si       2.09139095       1.91567270      -0.02341571      -0.30121000       0.21403000      -0.19943000
Si       2.09700982       0.07674349       1.89213785      -0.37852000      -0.14642000       0.17513000
Si       0.05425671       1.89274685       1.89251271       0.33633000       0.09269000       0.07687000
4
Lattice="3.78235856 -0.01006684 0.08871803 -0.08236228 3.79271414 -0.02803765 0.04843918 -0.03071585 3.77147072" Properties=species:S:1:pos:R:3:dft_force:R:3 config_type=fcc Minim_Constant_Volume=T dft_virial="3.70847363 0.34198877 -0.58843278 0.34198877 3.16219393 0.32429832 -0.58843278 0.32429832 3.08823288" dft_energy=-650.09689283 cutoff=-1.0 nneightol=1.2 pbc="T T T"
Si       0.04967148      -0.01382639       0.06477085       0.74872000      -0.00709000      -0.12741000
Si       2.09138835       1.91567272      -0.02341358      -0.77526000      -0.00153000       0.07065000
Si       2.09700626       0.07674362       1.89213915      -0.78781000      -0.15397000       0.16515000
Si       0.05425584       1.89274423       1.89251362       0.81435000       0.16259000      -0.10840000
4
Lattice="3.76751267 -0.02023707 -0.07628176 -0.00880884 3.85884584 -0.08639723 -0.00267384 0.06193384 3.87871611" Properties=species:S:1:pos:R:3:dft_force:R:3 config_type=fcc Minim_Constant_Volume=T dft_virial="1.40675969 0.4109555 0.32117981 0.4109555 2.04920065 -0.21860976 0.32117981 -0.21860976 2.1570166" dft_energy=-650.20406619 cutoff=-1.0 nneightol=1.2 pbc="T T T"
Si       0.04967041      -0.01382753       0.06477054       0.52999000      -0.18047000      -0.18384000
Si       2.09139032       1.91567295      -0.02341447      -0.57026000       0.15368000      -0.26272000
Si       2.09700952       0.07674312       1.89213916      -0.58487000      -0.22592000       0.18499000
Si       0.05425432       1.89274581       1.89251298       0.62513000       0.25271000       0.26157000
4
Lattice="3.77372732 0.00551272 0.02898137 0.0759509 3.92709271 -0.06440226 -0.03153377 0.03276346 3.94044239" Properties=species:S:1:pos:R:3:dft_force:R:3 config_type=fcc Minim_Constant_Volume=T dft_virial="0.91264036 0.05203471 -0.22069887 0.05203471 0.87901296 -0.14100398 -0.22069887 -0.14100398 0.87516847" dft_energy=-650.23430266 cutoff=-1.0 nneightol=1.2 pbc="T T T"
Si       0.04966982      -0.01382499       0.06477068       0.54068000      -0.33015000      -0.30973000
Si       2.09138952       1.91567360      -0.02341285      -0.48007000       0.27799000      -0.28722000
Si       2.09700895       0.07674349       1.89213922      -0.52806000      -0.21489000       0.32109000
Si       0.05425511       1.89274466       1.89251351       0.46746000       0.26704000       0.27585000
4
Lattice="3.78374756 -0.1228637 0.06503356 0.08074695 3.85141623 -0.09988229 -0.06320995 0.07228503 3.9087033" Properties=species:S:1:pos:R:3:dft_force:R:3 config_type=fcc Minim_Constant_Volume=T dft_virial="1.59827461 0.84479419 -0.48598114 0.84479419 1.87446387 -0.06609227 -0.48598114 -0.06609227 1.57737603" dft_energy=-650.21548663 cutoff=-1.0 nneightol=1.2 pbc="T T T"
Si       0.04967098      -0.01382529       0.06476999       0.55021000      -0.18410000      -0.29248000
Si       2.09139108       1.91567154      -0.02341577      -0.49286000       0.13128000      -0.21274000
Si       2.09700927       0.07674456       1.89213715      -0.67960000      -0.27724000       0.26823000
Si       0.05425556       1.89274551       1.89251585       0.62225000       0.33006000       0.23699000
4
Lattice="3.92699107 0.08335636 0.07144661 0.10056681 3.96408724 0.11799277 -0.12840799 -0.00379665 3.94632563" Properties=species:S:1:pos:R:3:dft_force:R:3 config_type=fcc Minim_Constant_Volume=T dft_virial="-0.62700363 -0.19964138 -0.32378545 -0.19964138 -0.38026655 -0.0101895 -0.32378545 -0.0101895 -0.93956733" dft_energy=-650.29118239 cutoff=-1.0 nneightol=1.2 pbc="T T T"
Si       0.04967044      -0.01382439       0.06476797       0.22186000      -0.23294000      -0.03711000
Si       2.09138821       1.91567049      -0.02341314      -0.27408000       0.25147000      -0.36164000
Si       2.09700804       0.07674324       1.89214017      -0.06416000      -0.14332000       0.24917000
Si       0.05425409       1.89274351       1.89251524       0.11638000       0.12479000       0.14958000
4
Lattice="3.93516811 -0.10144246 -0.00608059 -0.03066323 3.90177187 -0.11369596 -0.07426579 -0.09012539 3.87415855" Properties=species:S:1:pos:R:3:dft_force:R:3 config_type=fcc Minim_Constant_Volume=T dft_virial="0.30814636 0.23645291 -0.15080734 0.23645291 0.13595684 0.18331107 -0.15080734 0.18331107 -0.07556595" dft_energy=-650.31336395 cutoff=-1.0 nneightol=1.2 pbc="T T T"
Si       0.04967229      -0.01382596       0.06477042       0.06570000      -0.34477000      -0.16134000
Si       2.09139022       1.91567326      -0.02341368      -0.16639000       0.16446000      -0.10025000
Si       2.09700876       0.07674372       1.89213836      -0.16400000      -0.07781000       0.07393000
Si       0.05425657       1.89274609       1.89251580       0.26469000       0.25812000       0.18765000
4
Lattice="3.81548151 -0.12825603 0.04816367 0.0478169 3.91605275 0.03084901 -0.11257768 -0.03867995 3.84984713" Properties=species:S:1:pos:R:3:dft_force:R:3 config_type=fcc Minim_Constant_Volume=T dft_virial="1.51570604 0.62339401 -0.1184405 0.62339401 1.62462509 0.15034313 -0.1184405 0.15034313 0.92891161" dft_energy=-650.25123429 cutoff=-1.0 nneightol=1.2 pbc="T T T"
Si       0.04967104      -0.01382529       0.06477008       0.41795000      -0.30330000      -0.10840000
Si       2.09139039       1.91567157      -0.02341356      -0.44668000       0.18406000      -0.21867000
Si       2.09700902       0.07674264       1.89213837      -0.56279000      -0.25461000       0.16388000
Si       0.05425741       1.89274549       1.89251394       0.59151000       0.37386000       0.16319000
4
Lattice="3.89022461 0.05869453 0.07772746 0.06449982 3.87319785 0.03160434 -0.04176893 0.02331312 3.84462536" Properties=species:S:1:pos:R:3:dft_force:R:3 config_type=fcc Minim_Constant_Volume=T dft_virial="1.03595309 -0.05275647 -0.47868893 -0.05275647 0.8989066 -0.1115712 -0.47868893 -0.1115712 0.586605" dft_energy=-650.2985133 cutoff=-1.0 nneightol=1.2 pbc="T T T"
Si       0.04967230      -0.01382663       0.06476755       0.31153000      -0.21316000      -0.07108000
Si       2.09139149       1.91567208      -0.02341374      -0.26616000       0.21678000      -0.22106000
Si       2.09700800       0.07674150       1.89213926      -0.27389000      -0.11539000       0.14894000
Si       0.05425617       1.89274375       1.89251577       0.22852000       0.11177000       0.14320000
4
Lattice="3.78536838 0.12858539 -0.27640197 0.06489419 3.84302569 -0.07858648 -0.00401632 0.01312922 3.83538775" Properties=species:S:1:pos:R:3:dft_force:R:3 config_type=fcc Minim_Constant_Volume=T dft_virial="2.46547871 -0.35777414 0.83338528 -0.35777414 1.96475314 -0.05607486 0.83338528 -0.05607486 2.63620324" dft_energy=-650.1397255 cutoff=-1.0 nneightol=1.2 pbc="T T T"
Si       0.04967113      -0.01382455       0.06476797       0.73170000      -0.25489000       0.03836000