4
Lattice="1.87505021 -3.21647192 -0.01433926 1.97411012 3.32797886 -0.01891843 0.24674338 0.06950524 6.10077581" Properties=species:S:1:pos:R:3:dft_force:R:3 config_type=hex_diamond Minim_Constant_Volume=T dft_virial="1.68587027 -2.45031353 -0.08445719 -2.45031353 -0.36230145 0.38744409 -0.08445719 0.38744409 9.85418516" dft_energy=-651.96217247 cutoff=-1.0 nneightol=1.2 pbc="T T T"
Si       1.97210224       1.09609167       0.46492283       0.89231000      -0.56786000      -1.24761000
Si       2.07473387      -1.13333158       3.55472028      -0.81764000       1.22222000      -3.24244000
Si       2.08035232       1.18666129       2.73088212       0.64742000      -1.28380000       0.48026000
Si       1.97668635      -1.15626029      -0.44672519      -0.72210000       0.62945000       4.00979000
4
Lattice="1.92717458 -3.37894018 -0.10698532 1.94752127 3.28589523 0.07637652 0.07381004 0.07698205 6.42121329" Properties=species:S:1:pos:R:3:dft_force:R:3 config_type=hex_diamond Minim_Constant_Volume=T dft_virial="-0.65099868 0.79746544 0.19550926 0.79746544 -1.62396336 -0.61795375 0.19550926 -0.61795375 0.18370214" dft_energy=-652.48872182 cutoff=-1.0 nneightol=1.2 pbc="T T T"
Si       1.97210158       1.09609214       0.46491917       0.07575000      -0.35175000      -1.35526000
Si       2.07473227      -1.13333221       3.55471965       0.19389000       0.81844000      -0.19195000
Si       2.08035221       1.18666016       2.73088342      -0.22658000      -0.79857000       1.58629000
Si       1.97668645      -1.15625897      -0.44672292      -0.04305000       0.33189000      -0.03908000
4
Lattice="1.88914357 -3.19485347 0.03819962 1.85476067 3.28108618 0.08622991 0.07698632 0.05349551 6.33679545" Properties=species:S:1:pos:R:3:dft_force:R:3 config_type=hex_diamond Minim_Constant_Volume=T dft_virial="5.24272752 -0.60144747 -1.27854193 -0.60144747 1.00368674 0.07998035 -1.27854193 0.07998035 2.64104527" dft_energy=-652.28949689 cutoff=-1.0 nneightol=1.2 pbc="T T T"
Si       1.97210130       1.09609134       0.46492009      -0.16995000      -0.98552000      -1.17771000
Si       2.07473336      -1.13333414       3.55471703      -0.26977000       1.69759000       0.10710000
Si       2.08035066       1.18666235       2.73088188       0.23317000      -1.70097000       0.60652000
Si       1.97668516      -1.15625845      -0.44672227       0.20655000       0.98890000       0.46408000
4
Lattice="1.89887664 -3.39141327 0.01283427 1.96336169 3.35402332 0.0279154 0.0605848 -0.04928104 6.40636953" Properties=species:S:1:pos:R:3:dft_force:R:3 config_type=hex_diamond Minim_Constant_Volume=T dft_virial="-0.81362867 -0.29480193 -0.38454478 -0.29480193 -2.35177183 0.54317558 -0.38454478 0.54317558 0.37125076" dft_energy=-652.50151714 cutoff=-1.0 nneightol=1.2 pbc="T T T"
Si       1.97209968       1.09609116       0.46492130       0.24533000      -0.08119000      -1.81326000
Si       2.07473337      -1.13333064       3.55472061      -0.26269000       0.70008000       0.10249000
Si       2.08035015       1.18666267       2.73088156       0.22220000      -0.75896000       1.19697000
Si       1.97668528      -1.15625790      -0.44672506      -0.20484000       0.14008000       0.51380000
4
Lattice="1.9501382 -3.23504942 -0.009549 1.81297043 3.25849841 0.05490556 -0.02654338 0.0386611 6.2386596" Properties=species:S:1:pos:R:3:dft_force:R:3 config_type=hex_diamond Minim_Constant_Volume=T dft_virial="4.5726502 1.66476467 -0.18953664 1.66476467 0.75379862 0.07759237 -0.18953664 0.07759237 5.15598256" dft_energy=-652.24103806 cutoff=-1.0 nneightol=1.2 pbc="T T T"
Si       1.97210130       1.09608881       0.46492105      -0.80993000      -0.96667000      -1.03821000
Si       2.07473243      -1.13333239       3.55472091       0.89264000       1.57823000      -0.94827000
Si       2.08035104       1.18666112       2.73087980      -0.92761000      -1.59245000       0.57384000
Si       1.97668509      -1.15625973      -0.44672478       0.84490000       0.98089000       1.41264000
4
Lattice="1.7457986 -3.37868521 -0.07401124 2.03533621 3.35547912 0.13252469 0.08432599 -0.16090374 6.36640957" Properties=species:S:1:pos:R:3:dft_force:R:3 config_type=hex_diamond Minim_Constant_Volume=T dft_virial="2.06934117 -3.21184472 -0.66248927 -3.21184472 -1.43375957 0.04003722 -0.66248927 0.04003722 1.5539882" dft_energy=-652.30999841 cutoff=-1.0 nneightol=1.2 pbc="T T T"
Si       1.97210108       1.09609015       0.46491868       1.51565000      -0.67449000      -1.02214000
Si       2.07473390      -1.13333161       3.55472095      -1.46888000       0.81620000      -0.28643000
Si       2.08035100       1.18666352       2.73088006       1.44230000      -0.93632000       1.31891000
Si       1.97668567      -1.15625882      -0.44672629      -1.48907000       0.79461000      -0.01034000
4
Lattice="1.88549683 -3.33897832 -0.01801217 1.96065898 3.29399137 0.03285298 -0.0405597 -0.04500183 6.50912299" Properties=species:S:1:pos:R:3:dft_force:R:3 config_type=hex_diamond Minim_Constant_Volume=T dft_virial="0.42182644 -0.37096562 0.25009731 -0.37096562 -1.1022441 0.41597654 0.25009731 0.41597654 -1.10305633" dft_energy=-652.42184307 cutoff=-1.0 nneightol=1.2 pbc="T T T"
Si       1.97210125       1.09609259       0.46492195       0.31532000      -0.42019000      -1.69041000
Si       2.07473461      -1.13333335       3.55471754      -0.41601000       0.98742000       0.68153000
Si       2.08034986       1.18666168       2.73088194       0.28675000      -1.05402000       1.22876000
Si       1.97668506      -1.15625900      -0.44672567      -0.18606000       0.48679000      -0.21988000
4
Lattice="1.96579488 -3.26431226 -0.03980227 1.87462199 3.22160273 -0.02214099 -0.12984411 0.00540912 6.2843818" Properties=species:S:1:pos:R:3:dft_force:R:3 config_type=hex_diamond Minim_Constant_Volume=T dft_virial="2.26146554 1.71495815 1.20448886 1.71495815 0.33197454 0.36630663 1.20448886 0.36630663 3.343527" dft_energy=-652.32169906 cutoff=-1.0 nneightol=1.2 pbc="T T T"
Si       1.97209990       1.09609151       0.46492054      -0.41731000      -0.72193000      -1.39482000
Si       2.07473352      -1.13333371       3.55472018       0.87058000       1.47251000      -0.40774000
Si       2.08035049       1.18665994       2.73087868      -0.97286000      -1.48949000       0.66877000
Si       1.97668496      -1.15625753      -0.44672509       0.51959000       0.73891000       1.13379000
4
Lattice="2.05972635 -3.43414691 -0.07374394 1.8604548 3.37736933 0.02718975 -0.16549407 0.02626919 6.33790476" Properties=species:S:1:pos:R:3:dft_force:R:3 config_type=hex_diamond Minim_Constant_Volume=T dft_virial="-2.22190217 2.40544552 1.10468876 2.40544552 -3.00185466 -0.07060305 1.10468876 -0.07060305 1.56613645" dft_energy=-652.34393984 cutoff=-1.0 nneightol=1.2 pbc="T T T"
Si       1.97210126       1.09609182       0.46492044      -0.74263000       0.02329000      -1.57355000
Si       2.07473177      -1.13333194       3.55471859       0.87888000       0.58053000      -0.51834000
Si       2.08035095       1.18665823       2.73088119      -1.01552000      -0.59185000       1.34721000
Si       1.97668571      -1.15625879      -0.44672751       0.87927000      -0.01197000       0.74468000
4
Lattice="1.91530126 -3.28815292 0.04268484 1.82079274 3.28107321 0.00908614 0.05540251 -0.04853817 6.23766649" Properties=species:S:1:pos:R:3:dft_force:R:3 config_type=hex_diamond Minim_Constant_Volume=T dft_virial="4.66112552 1.39136738 -0.40463935 1.39136738 0.22132228 0.70984411 -0.40463935 0.70984411 5.17746662" dft_energy=-652.26254619 cutoff=-1.0 nneightol=1.2 pbc="T T T"
Si       1.97210233       1.09609082       0.46492384      -0.53996000      -0.72129000      -1.39504000
Si       2.07473284      -1.13333344       3.55472127       0.73746000       1.60810000      -0.77484000
Si       2.08035197       1.18665970       2.73088337      -0.75782000      -1.62258000       0.36174000
Si       1.97668578      -1.15626077      -0.44672418       0.56032000       0.73577000       1.80814000
4
Lattice="1.94628729 -3.31926885 -0.01557325 1.94668026 3.23285089 0.0225848 0.05026899 0.05599011 6.27379644" Properties=species:S:1:pos:R:3:dft_force:R:3 config_type=hex_diamond Minim_Constant_Volume=T dft_virial="-0.11561304 0.95844362 -0.07786254 0.95844362 -0.67794054 0.11936182 -0.07786254 0.11936182 3.56248133" dft_energy=-652.42929075 cutoff=-1.0 nneightol=1.2 pbc="T T T"
Si       1.97209947       1.09609134       0.46492185      -0.06190000      -0.45853000      -1.50406000
Si       2.07473344      -1.13333444       3.55472118       0.26397000       1.12664000      -0.93152000
Si       2.08035208       1.18666030       2.73087927      -0.29916000      -1.13343000       0.97126000
Si       1.97668702      -1.15625781      -0.44672774       0.09709000       0.46532000       1.46433000
4
Lattice="1.88305428 -3.31690445 0.03804248 2.01740196 3.49984554 0.05533517 -0.15994865 0.05352991 6.23472824" Properties=species:S:1:pos:R:3:dft_force:R:3 config_type=hex_diamond Minim_Constant_Volume=T dft_virial="-1.56574458 -3.08964511 -0.55209468 -3.08964511 -3.00280025 0.17792785 -0.55209468 0.17792785 4.18924569" dft_energy=-652.26279369 cutoff=-1.0 nneightol=1.2 pbc="T T T"
Si       1.97210195       1.09609143       0.46492228       0.57309000       0.09498000      -1.65375000
Si       2.07473307      -1.13333344       3.55472133      -1.10428000       0.66104000      -1.33140000
Si       2.08034956       1.18666058       2.73088104       1.08000000      -0.68213000       1.04630000
Si       1.97668570      -1.15625664      -0.44672286      -0.54880000      -0.07389000       1.93886000
4
Lattice="1.88490283 -3.16193777 0.062027 1.82543866 3.12998822 -0.03026075 -0.01801044 0.14983508 6.25227559" Properties=species:S:1:pos:R:3:dft_force:R:3 config_type=hex_diamond Minim_Constant_Volume=T dft_virial="9.43918819 1.40998878 -0.00622131 1.40998878 2.87223177 0.59248151 -0.00622131 0.59248151 5.15856694" dft_energy=-651.84570846 cutoff=-1.0 nneightol=1.2 pbc="T T T"
Si       1.97210058       1.09608897       0.46492053      -0.49800000      -1.23506000      -1.09886000
Si       2.07473314      -1.13333376       3.55471958       0.76331000       2.49857000       0.25527000
Si       2.08035227       1.18666086       2.73088412      -0.81854000      -2.49866000      -0.41414000
Si       1.97668633      -1.15625671      -0.44672418       0.55323000       1.23515000       1.25773000
4
Lattice="1.94774981 -3.36419005 -0.03128132 1.9700823 3.36003014 0.08353856 0.0316859 0.09327659 6.20203404" Properties=species:S:1:pos:R:3:dft_force:R:3 config_type=hex_diamond Minim_Constant_Volume=T dft_virial="-2.17797594 -0.1884781 -0.51379995 -0.1884781 -2.43447781 -0.28296462 -0.51379995 -0.28296462 5.61080112" dft_energy=-652.35989123 cutoff=-1.0 nneightol=1.2 pbc="T T T"
Si       1.97210090       1.09608831       0.46492296       0.09208000      -0.07135000      -1.40502000
Si       2.07473446      -1.13333352       3.55471622      -0.07390000       0.61302000      -2.23133000
Si       2.08035035       1.18666263       2.73088228       0.07141000      -0.64092000       1.30195000
Si       1.97668699      -1.15626054      -0.44672354      -0.08960000       0.09925000       2.33441000
4
Lattice="1.95816613 -3.29518453 -0.05783092 1.85820311 3.23422201 0.04213138 -0.07236303 0.04685711 6.38331312" Properties=species:S:1:pos:R:3:dft_force:R:3 config_type=hex_diamond Minim_Constant_Volume=T dft_virial="2.52310885 2.01973174 0.68951825 2.01973174 0.08002352 -0.09957525 0.68951825 -0.09957525 1.23349288" dft_energy=-652.37826545 cutoff=-1.0 nneightol=1.2 pbc="T T T"
Si       1.97210050       1.09608893       0.46492135      -0.61930000      -0.77343000      -1.26146000
Si       2.07473297      -1.13333176       3.55472076       0.79767000       1.34917000       0.14885000
Si       2.08035046       1.18666008       2.73087912      -0.92638000      -1.34844000       0.99854000
Si       1.97668582      -1.15625703      -0.44672694       0.74801000       0.77270000       0.11407000
4
Lattice="1.78187822 -3.30211451 -0.10224115 1.93667494 3.28189167 -0.02532762 0.04020522 -0.02119577 6.41668624" Properties=species:S:1:pos:R:3:dft_force:R:3 config_type=hex_diamond Minim_Constant_Volume=T dft_virial="5.05448655 -1.91050446 1.10301599 -1.91050446 0.27952929 0.14762717 1.10301599 0.14762717 0.97762223" dft_energy=-652.30831386 cutoff=-1.0 nneightol=1.2 pbc="T T T"
Si       1.97210184       1.09608932       0.46492055       1.31564000      -0.98225000      -1.15788000
Si       2.07473302      -1.13333550       3.55471736      -0.61682000       1.41221000       0.51301000
Si       2.08035139       1.18666149       2.73088383       0.56362000      -1.45880000       0.84621000
Si       1.97668639      -1.15626019      -0.44672199      -1.26245000       1.02884000      -0.20134000
4
Lattice="2.15169984 -3.3000055 0.08339711 1.74427638 3.2448583 -0.11522846 -0.01569683 0.14481911 6.32174551" Properties=species:S:1:pos:R:3:dft_force:R:3 config_type=hex_diamond Minim_Constant_Volume=T dft_virial="2.82541945 5.63071066 1.20509671 5.63071066 0.35493035 1.01041314 1.20509671 1.01041314 2.59189473" dft_energy=-651.78496035 cutoff=-1.0 nneightol=1.2 pbc="T T T"
Si       1.97210051       1.09609227       0.46491990      -1.46903000      -0.57731000      -1.79605000
Si       2.07473240      -1.13333381       3.55472108       3.37413000       2.20149000       0.73298000
Si       2.08035109       1.18666089       2.73088204      -3.44668000      -2.16174000      -0.12093000
Si       1.97668643      -1.15626090      -0.44672674       1.54158000       0.53756000       1.18401000
4
Lattice="1.94041789 -3.27474634 -0.00340906 1.94886376 3.2258482 -0.03172159 -0.23291836 -0.09856149 6.41712756" Properties=species:S:1:pos:R:3:dft_force:R:3 config_type=hex_diamond Minim_Constant_Volume=T dft_virial="0.41537863 0.45098653 1.44365565 0.45098653 -0.10647246 0.86593344 1.44365565 0.86593344 0.13399907" dft_energy=-652.35248724 cutoff=-1.0 nneightol=1.2 pbc="T T T"
Si       1.97210181       1.09609058       0.46492250      -0.00792000      -0.58081000      -1.75161000
Si       2.07473214      -1.13333318       3.55471955      -0.08627000       1.24475000       0.59417000
Si       2.08035059       1.18666018       2.73088236      -0.17747000      -1.33917000       0.87304000
Si       1.97668514      -1.15625814      -0.44672660       0.27166000       0.67523000       0.28441000
4
Lattice="1.81912553 -3.28067311 -0.14376795 2.01785577 3.20528041 0.01045245 -0.19656419 0.07085032 6.39336626" Properties=species:S:1:pos:R:3:dft_force:R:3 config_type=hex_diamond Minim_Constant_Volume=T dft_virial="2.2125559 -1.63118556 2.08598308 -1.63118556 0.450128 -0.5404 2.08598308 -0.5404 0.99404391" dft_energy=-652.2600828 cutoff=-1.0 nneightol=1.2 pbc="T T T"
Si       1.97210080       1.09608850       0.46492144       1.33226000      -1.03388000      -0.99715000
Si       2.07473421      -1.13333377       3.55471719      -0.93817000       1.30896000       0.09245000
Si       2.08035103       1.18665987       2.73088357       0.72415000      -1.29368000       1.16267000
Si       1.97668692      -1.15625914      -0.44672191      -1.11823000       1.01859000      -0.25796000
4
Lattice="1.89029327 -3.37016324 0.00096557 1.94123325 3.19585575 0.03618013 -0.10155417 -0.31186692 6.26652611" Properties=species:S:1:pos:R:3:dft_force:R:3 config_type=hex_diamond Minim_Constant_Volume=T dft_virial="1.53530706 1.30380466 0.09775655 1.30380466 -0.54359808 1.03927458 0.09775655 1.03927458 3.23647283" dft_energy=-652.38703579 cutoff=-1.0 nneightol=1.2 pbc="T T T"
Si       1.97210143       1.09609025       0.46491976      -0.11005000      -0.61494000      -1.43443000
Si       2.07473317      -1.13333553       3.55471720       0.01855000       1.02383000      -0.56493000
Si       2.08035246       1.18666087       2.73087807      -0.10407000      -1.13394000       0.86054000
Si       1.97668630      -1.15625920      -0.44672535       0.19557000       0.72505000       1.13882000
4
Lattice="1.84822205 -3.38147699 -0.07792793 1.95403641 3.43744637 0.12714299 -0.2572372 0.08345516 6.32779447" Properties=species:S:1:pos:R:3:dft_force:R:3 config_type=hex_diamond Minim_Constant_Volume=T dft_virial="0.30855906 -1.70262221 0.52417167 -1.70262221 -2.76627206 -0.79808461 0.52417167 -0.79808461 1.69993708" dft_energy=-652.42008386 cutoff=-1.0 nneightol=1.2 pbc="T T T"
Si       1.97210034       1.09609054       0.46492190       0.52704000      -0.12343000      -1.20896000
Si       2.07473174      -1.13333378       3.55471711      -0.87352000       0.59447000      -0.71623000
Si       2.08035068       1.18665962       2.73088231       0.69227000      -0.58696000       1.55534000
Si       1.97668693      -1.15625852      -0.44672181      -0.34579000       0.11592000       0.36985000
4
Lattice="1.97392076 -3.2168264 -0.02609635 1.90396954 3.25561324 0.0150427 -0.01037129 0.12100693 6.39150668" Properties=species:S:1:pos:R:3:dft_force:R:3 config_type=hex_diamond Minim_Constant_Volume=T dft_virial="1.113582 0.43911802 0.36790251 0.43911802 0.08202317 -0.09164433 0.36790251 -0.09164433 0.82470538" dft_energy=-652.40583312 cutoff=-1.0 nneightol=1.2 pbc="T T T"
Si       1.97210093       1.09608935       0.46492175      -0.18201000      -0.63158000      -1.48403000
Si       2.07473262      -1.13333058       3.55472111       0.39695000       1.38501000       0.24194000
Si       2.08035067       1.18666101       2.73087799      -0.49530000      -1.34175000       0.95190000
Si       1.97668584      -1.15625665      -0.44672672       0.28036000       0.58833000       0.29018000
4
Lattice="1.75525764 -3.25382979 -0.02365701 2.03206115 3.2879533 0.05467096 -0.02110006 0.01662784 6.23752057" Properties=species:S:1:pos:R:3:dft_force:R:3 config_type=hex_diamond Minim_Constant_Volume=T dft_virial="4.17858193 -4.14683165 -0.39545125 -4.14683165 0.53249922 0.05005542 -0.39545125 0.05005542 5.3330668" dft_energy=-652.07853932 cutoff=-1.0 nneightol=1.2 pbc="T T T"
Si       1.97210123       1.09609314       0.46492366       1.70833000      -0.99636000      -0.92862000
Si       2.07473286      -1.13333209       3.55471605      -2.02890000       1.60917000      -0.92783000
Si       2.08035001       1.18665999       2.73088297       1.99731000      -1.62840000       0.53015000
Si       1.97668585      -1.15625896      -0.44672500      -1.67675000       1.01559000       1.32629000
4
Lattice="1.87502282 -3.37283963 -0.10137268 2.08948795 3.37352921 0.05939368 0.0448823 -0.01169399 6.23287263" Properties=species:S:1:pos:R:3:dft_force:R:3 config_type=hex_diamond Minim_Constant_Volume=T dft_virial="-3.00441253 -1.92380937 0.21699891 -1.92380937 -2.64476474 -0.3601322 0.21699891 -0.3601322 4.59496606" dft_energy=-652.29481101 cutoff=-1.0 nneightol=1.2 pbc="T T T"
Si       1.97210021       1.09609022       0.46492381       0.94361000      -0.15938000      -1.29785000
Si       2.07473177      -1.13333219       3.55471934      -0.72768000       0.52247000      -1.95175000
Si       2.08035135       1.18666017       2.73088081       0.71264000      -0.53051000       1.46046000
Si       1.97668773      -1.15625939      -0.44672472      -0.92858000       0.16741000       1.78914000
4
Lattice="1.90193532 -3.31538551 0.00900267 1.94323673 3.16936216 0.01379475 0.25245237 0.21797045 6.43878266" Properties=species:S:1:pos:R:3:dft_force:R:3 config_type=hex_diamond Minim_Constant_Volume=T dft_virial="1.86475123 1.10792323 -0.92388162 1.10792323 0.20034319 -0.25649436 -0.92388162 -0.25649436 0.0816562" dft_energy=-652.32673001 cutoff=-1.0 nneightol=1.2 pbc="T T T"
Si       1.97210175       1.09609002       0.46492088       0.04896000      -0.62884000      -1.59361000
Si       2.07473221      -1.13333223       3.55471676       0.36468000       1.60259000       0.68394000
Si       2.08034996       1.18666156       2.73087956      -0.27630000      -1.48092000       0.86532000
Si       1.97668484      -1.15625987      -0.44672464      -0.13733000       0.50717000       0.04435000
4
Lattice="1.90536949 -3.19386742 0.0654881 1.94929981 3.31071367 -0.03061846 -0.07910508 0.11528797 6.39407307" Properties=species:S:1:pos:R:3:dft_force:R:3 config_type=hex_diamond Minim_Constant_Volume=T dft_virial="1.74924943 -1.87001525 0.03780612 -1.87001525 0.05954874 0.47131978 0.03780612 0.47131978 0.73438036" dft_energy=-652.33532314 cutoff=-1.0 nneightol=1.2 pbc="T T T"
Si       1.97210078       1.09608813       0.46491833       0.38634000      -0.50153000      -1.85584000
Si       2.07473285      -1.13333374       3.55471601      -0.80173000       1.59996000       0.64545000
Si       2.08035161       1.18665967       2.73088182       0.66285000      -1.56137000       0.59476000
Si       1.97668691      -1.15625984      -0.44672199      -0.24745000       0.46293000       0.61562000
4
Lattice="1.95978283 -3.21814073 0.01865244 1.98537954 3.28801433 0.00153669 -0.07426824 0.10796049 6.55560983" Properties=species:S:1:pos:R:3:dft_force:R:3 config_type=hex_diamond Minim_Constant_Volume=T dft_virial="-1.03021207 -1.02557822 0.33341164 -1.02557822 -0.52354847 0.11032902 0.33341164 0.11032902 -1.89774956" dft_energy=-652.27765185 cutoff=-1.0 nneightol=1.2 pbc="T T T"
Si       1.97210050       1.09609255       0.46492036       0.22775000      -0.41187000      -1.87700000
Si       2.07473287      -1.13333104       3.55471992      -0.43200000       1.25488000       0.96174000
Si       2.08035136       1.18666290       2.73087973       0.25839000      -1.19805000       1.12523000
Si       1.97668576      -1.15625935      -0.44672804      -0.05414000       0.35504000      -0.20997000
4
Lattice="1.69898456 -3.2025407 0.08919109 2.07826879 3.24842117 0.00872341 0.19599349 0.12581094 6.25157598" Properties=species:S:1:pos:R:3:dft_force:R:3 config_type=hex_diamond Minim_Constant_Volume=T dft_virial="7.1309103 -6.26001008 -1.9864407 -6.26001008 1.9082096 0.74770504 -1.9864407 0.74770504 5.29218701" dft_energy=-651.5797183 cutoff=-1.0 nneightol=1.2 pbc="T T T"
Si       1.97209985       1.09608984       0.46491839       2.09040000      -1.11955000      -1.08721000
Si       2.07473228      -1.13333375       3.55471981      -3.71356000       2.57005000       0.23752000
Si       2.08035052       1.18665858       2.73088073       3.70403000      -2.57624000      -0.43262000
Si       1.97668611      -1.15625743      -0.44672460      -2.08088000       1.12574000       1.28230000
4
Lattice="1.9618324 -3.24527633 0.02442558 1.91715942 3.41530386 -0.06894715 0.0408695 -0.09299092 6.41719793" Properties=species:S:1:pos:R:3:dft_force:R:3 config_type=hex_diamond Minim_Constant_Volume=T dft_virial="-0.4809037 -1.32367567 0.34866287 -1.32367567 -1.57284936 1.14604547 0.34866287 1.14604547 0.12239914" dft_energy=-652.42436747 cutoff=-1.0 nneightol=1.2 pbc="T T T"
Si       1.97210043       1.09609035       0.46492028       0.16903000      -0.19067000      -2.05046000
Si       2.07473389      -1.13333312       3.55472101       0.02045000       0.94314000       0.48855000
Si       2.08035194       1.18666232       2.73087893      -0.07873000      -1.03224000       0.88992000
Si       1.97668634      -1.15625925      -0.44672589      -0.11075000       0.27977000       0.67199000
4
Lattice="1.92411366 -3.39389336 0.00198755 1.92586884 3.32651257 0.02819086 0.1047014 0.14540891 6.51298366" Properties=species:S:1:pos:R:3:dft_force:R:3 config_type=hex_diamond Minim_Constant_Volume=T dft_virial="-0.31167153 0.69598409 -0.36942619 0.69598409 -2.04746206 -0.1839452 -0.36942619 -0.1839452 -1.25190288" dft_energy=-652.41954703 cutoff=-1.0 nneightol=1.2 pbc="T T T"
Si       1.97210063       1.09609086       0.46491854      -0.03260000      -0.09756000      -1.82913000
Si       2.07473317      -1.13333362       3.55472213       0.20574000       0.97269000       0.64672000
Si       2.08035032       1.18666085       2.73088415      -0.21835000      -0.89059000       1.27152000
Si       1.97668662      -1.15625969      -0.44672608       0.04521000       0.01547000      -0.08910000
4
Lattice="1.80765315 -3.31883367 0.0190436 1.95651094 3.34148122 0.08329743 0.03044185 0.11963081 6.43148715" Properties=species:S:1:pos:R:3:dft_force:R:3 config_type=hex_diamond Minim_Constant_Volume=T dft_virial="2.92235785 -2.20721879 -0.88048832 -2.20721879 -0.81657871 -0.1772537 -0.88048832 -0.1772537 0.40065695" dft_energy=-652.36795678 cutoff=-1.0 nneightol=1.2 pbc="T T T"
Si       1.97210104       1.09608924       0.46492178       0.72009000      -0.49248000      -1.45324000
Si       2.07473361      -1.13333244       3.55471585      -1.22104000       1.35196000       0.49327000
Si       2.08035038       1.18666190       2.73088042       1.15474000      -1.30402000       0.98139000
Si       1.97668645      -1.15626040      -0.44672667      -0.65379000       0.44453000      -0.02142000
4
Lattice="1.95600425 -3.31806098 -0.05547425 1.92009382 3.31285986 -0.00702756 -0.13729694 0.09744241 6.39781571" Properties=species:S:1:pos:R:3:dft_force:R:3 config_type=hex_diamond Minim_Constant_Volume=T dft_virial="-0.39645398 0.51972818 1.24814945 0.51972818 -1.23488967 -0.07533877 1.24814945 -0.07533877 0.54048187" dft_energy=-652.46185567 cutoff=-1.0 nneightol=1.2 pbc="T T T"
Si       1.97209994       1.09608997       0.46491946      -0.05311000      -0.32154000      -1.64688000
Si       2.07473324      -1.13333358       3.55472186       0.20287000       1.07565000       0.11642000
Si       2.08035243       1.18666004       2.73087826      -0.37154000      -1.04434000       1.17036000
Si       1.97668564      -1.15626120      -0.44672548       0.22178000       0.29023000       0.36011000
4
Lattice="1.90158413 -3.36622648 -0.11199303 1.96663953 3.40485023 -0.05919835 0.04686704 -0.02806407 6.4685935" Properties=species:S:1:pos:R:3:dft_force:R:3 config_type=hex_diamond Minim_Constant_Volume=T dft_virial="-1.02654363 -1.00101541 1.33286366 -1.00101541 -2.58295962 0.2779285 1.33286366 0.2779285 -0.73992943" dft_energy=-652.43999753 cutoff=-1.0 nneightol=1.2 pbc="T T T"
Si       1.97210012       1.09609188       0.46492315       0.60451000      -0.08824000      -1.74615000
Si       2.07473256      -1.13333050       3.55471863      -0.06468000       0.58815000       0.30059000
Si       2.08035024       1.18666182       2.73088026       0.01789000      -0.64223000       1.38367000
Si       1.97668524      -1.15625803      -0.44672767      -0.55772000       0.14233000       0.06189000
4
Lattice="2.02725809 -3.38631614 0.03722771 1.89595656 3.37043468 -0.06240278 0.14926534 0.03026654 6.4289213" Properties=species:S:1:pos:R:3:dft_force:R:3 config_type=hex_diamond Minim_Constant_Volume=T dft_virial="-2.09541946 1.44112225 0.00986323 1.44112225 -2.59108741 0.74727424 0.00986323 0.74727424 -0.17035205" dft_energy=-652.38575832 cutoff=-1.0 nneightol=1.2 pbc="T T T"
Si       1.97209968       1.09609129       0.46492410      -0.30285000       0.09074000      -2.15406000
Si       2.07473373      -1.13333305       3.55471783       0.93264000       0.81521000       0.44334000
Si       2.08035232       1.18665995       2.73088208      -0.91440000      -0.82220000       1.00236000
Si       1.97668499      -1.15625873      -0.44672228       0.28462000      -0.08375000       0.70837000
4
Lattice="1.94313175 -3.3840669 -0.00213925 1.91921368 3.33067147 -0.0109847 0.00037109 -0.01026568 6.10204952" Properties=species:S:1:pos:R:3:dft_force:R:3 config_type=hex_diamond Minim_Constant_Volume=T dft_virial="-0.52511794 0.83616217 -0.02721942 0.83616217 -2.08969353 0.37690725 -0.02721942 0.37690725 9.70045587" dft_energy=-652.0888858 cutoff=-1.0 nneightol=1.2 pbc="T T T"
Si       1.97210260       1.09609054       0.46492081      -0.09766000      -0.12109000      -1.50758000
Si       2.07473357      -1.13333412       3.55471953       0.44753000       0.86304000      -3.56199000
Si       2.08035162       1.18666141       2.73087973      -0.36222000      -0.83689000       0.74725000
Si       1.97668633      -1.15625677      -0.44672252       0.01234000       0.09495000       4.32232000
4
Lattice="1.94271124 -3.32567875 -0.04297419 1.92036234 3.33733604 0.0069532 -0.35616121 0.00040129 6.32238821" Properties=species:S:1:pos:R:3:dft_force:R:3 config_type=hex_diamond Minim_Constant_Volume=T dft_virial="-0.43976116 0.14356194 1.64052913 0.14356194 -1.45336756 0.22360762 1.64052913 0.22360762 1.66667957" dft_energy=-652.4256098 cutoff=-1.0 nneightol=1.2 pbc="T T T"
Si       1.97210173       1.09608900       0.46491978      -0.08351000      -0.32147000      -1.57486000
Si       2.07473418      -1.13333223       3.55472073      -0.13255000       0.93901000      -0.23179000
Si       2.08035220       1.18666011       2.73088171      -0.12600000      -0.96556000       1.11960000
Si       1.97668613      -1.15626129      -0.44672711       0.34206000       0.34801000       0.68706000
4
Lattice="1.98551534 -3.3944014 0.01396721 1.91708923 3.32631418 0.05092879 0.05301404 0.0723531 6.49612326" Properties=species:S:1:pos:R:3:dft_force:R:3 config_type=hex_diamond Minim_Constant_Volume=T dft_virial="-1.5768987 1.38108387 -0.41432399 1.38108387 -2.220889 0.01604767 -0.41432399 0.01604767 -1.10084923" dft_energy=-652.40821728 cutoff=-1.0 nneightol=1.2 pbc="T T T"
Si       1.97209965       1.09609130       0.46492009      -0.35137000      -0.08788000      -1.82657000
Si       2.07473127      -1.13333286       3.55471710       0.42633000       0.80251000       0.48429000
Si       2.08034970       1.18666193       2.73087969      -0.48133000      -0.77809000       1.35097000
Si       1.97668621      -1.15626084      -0.44672284       0.40637000       0.06346000      -0.00869000
4