1
Lattice="20.0 0.0 0.0 0.0 20.0 0.0 0.0 0.0 20.0" Properties=species:S:1:pos:R:3:map_shift:I:3:n_neighb:I:1:gap_force:R:3:dft_force:R:3 config_type=isolated_atom gap_energy=-157.7272532 gap_virial="0.0 0.0 0.0 0.0 0.0 0.0 0.0 0.0 0.0" dft_energy=-158.54496821 cutoff=5.5 nneightol=1.2 pbc="T T T"
Si      10.00000000      10.00000000      10.00000000       -1       -1       -1        0       0.00000000       0.00000000       0.00000000       0.00000000       0.00000000       0.00000000
