144
Lattice="26.818337 2.440734 0.740494 12.983191 10.620511 1.539335 -0.481081 -0.527692 11.342866" Properties=species:S:1:pos:R:3:mass:R:1:travel:I:3:damp_mask:I:1:thermostat_region:I:1:avg_ke:R:1:velo:R:3:acc:R:3:avgpos:R:3:oldpos:R:3:map_shift:I:3:n_neighb:I:1:frac_pos:R:3:momenta:R:3:masses:R:1:force_ewald:R:3:force_locpot:R:3:force_nlpot:R:3:dft_force:R:3 time=0.0 config_type=screw_disloc iprint=2 reuse=NULL task=SinglePoint calculate_stress=T data_distribution=GVECTOR opt_strategy=memory xc_functional=PW91 cut_off_energy="250.0000000 eV" fine_grid_scale=4.0 finite_basis_corr=automatic spin_polarized=F elec_energy_tol="0.0000001 ev" max_scf_cycles=250 fix_occupancy=F smearing_width="0.0500000 eV" num_dump_cycles=0 mixing_scheme=pulay mix_history_length=20 kpoints_mp_grid="5 8 6" castep_file_name=traj144_10.xyz@0/filepot/filepot.castep dft_energy=-23487.532404 cutoff=6.0 nneightol=1.2 pbc="T T T"
Si     -12.42149437      -4.46896828      -4.15791113    2910.85773629        0        0        0        1        1       0.00000000       0.00000000       0.00000000       0.00000000       0.00000148      -0.00000475       0.00000181     -12.42148821      -4.46897122      -4.15790847     -12.42148821      -4.46897122      -4.15790847        0        0        0       43      -0.28989500      -0.36895000      -0.29757100       0.00000000       0.00000000       0.00000000      28.08550000      -6.08735000      -3.10539000      -0.79122000       6.26326000       3.07582000       0.80192000      -0.12621000       0.05242000       0.00959000       0.04971000       0.02286000       0.02029000
Si     -12.60481301      -4.62668016      -0.37995480    2910.85773629        0        0        0        1        1       0.00000000       0.00000000       0.00000000       0.00000000       0.00000313      -0.00001020      -0.00000045     -12.60480234      -4.62667843      -0.37994869     -12.60480234      -4.62667843      -0.37994869        0        0        0       44      -0.29178800      -0.36682400       0.03533300       0.00000000       0.00000000       0.00000000      28.08550000      -7.03432000      -2.63795000       0.47289000       7.28178000       2.65882000      -0.51662000      -0.19303000       0.00370000       0.05457000       0.05443000       0.02458000       0.01084000
Si      -9.18817919      -4.18533765      -2.14537366    2910.85773629        0        0        0        1        1       0.00000000       0.00000000       0.00000000       0.00000000      -0.00000131       0.00000422      -0.00000718      -9.18818414      -4.18533714      -2.14537057      -9.18818414      -4.18533714      -2.14537057        0        0        0       43      -0.16994600      -0.36143400      -0.12899400       0.00000000       0.00000000       0.00000000      28.08550000      -3.68468000       1.15996000      -1.18838000       3.43719000      -1.18163000       1.44441000       0.21863000       0.01586000      -0.21702000      -0.02886000      -0.00581000       0.03901000
Si      -9.34261587      -4.36739499       1.62905800    2910.85773629        0        0        0        1        1       0.00000000       0.00000000       0.00000000       0.00000000      -0.00000028      -0.00000526       0.00000795      -9.34261335      -4.36739924       1.62905969      -9.34261335      -4.36739924       1.62905969        0        0        0       44      -0.16937800      -0.36217000       0.20382700       0.00000000       0.00000000       0.00000000      28.08550000      -3.74520000      -0.06432000       1.18473000       3.68346000       0.11180000      -0.89836000       0.04929000      -0.04671000      -0.24123000      -0.01245000       0.00078000       0.04514000
Si      -5.79244999      -3.84654799      -4.06863380    2910.85773629        0        0        0        1        1       0.00000000       0.00000000       0.00000000       0.00000000       0.00001589       0.00000999       0.00001596      -5.79244738      -3.84654548      -4.06863295      -5.79244738      -3.84654548      -4.06863295        0        0        0       45      -0.04363400      -0.36735700      -0.30599300       0.00000000       0.00000000       0.00000000      28.08550000      -2.70741000       2.26508000      -2.91592000       2.90896000      -2.54333000       3.43729000      -0.14068000       0.24794000      -0.35770000       0.06087000      -0.03030000       0.16366000
Si      -5.95556406      -3.94136124      -0.28469557    2910.85773629        0        0        0        1        1       0.00000000       0.00000000       0.00000000       0.00000000       0.00003076       0.00002442       0.00000030      -5.95557705      -3.94136593      -0.28469941      -5.95557705      -3.94136593      -0.28469941        0        0        0       45      -0.04790400      -0.35877200       0.02671700       0.00000000       0.00000000       0.00000000      28.08550000      -2.39115000       5.71386000       0.11084000       2.65101000      -6.51237000       0.32930000      -0.15985000       0.77222000      -0.43840000       0.10001000      -0.02629000       0.00173000
Si      -2.55767531      -3.62994449      -2.53895844    2910.85773629        0        0        0        1        1       0.00000000       0.00000000       0.00000000       0.00000000      -0.00004717      -0.00000863      -0.00005731      -2.55766409      -3.62993916      -2.53895184      -2.55766409      -3.62993916      -2.53895184        0        0        0       43       0.08010000      -0.36908700      -0.17897800       0.00000000       0.00000000       0.00000000      28.08550000       1.82818000       1.56147000      -7.81581000      -1.35308000      -2.07132000       9.96860000      -0.54474000       0.39327000      -2.28378000      -0.06964000      -0.11658000      -0.13100000
Si      -2.72815173      -3.84107679       1.24530983    2910.85773629        0        0        0        1        1       0.00000000       0.00000000       0.00000000       0.00000000      -0.00004187      -0.00000451      -0.00005955      -2.72814392      -3.84107296       1.24531249      -2.72814392      -3.84107296       1.24531249        0        0        0       42       0.08147800      -0.37268700       0.15504600       0.00000000       0.00000000       0.00000000      28.08550000       1.69699000       0.61593000      -6.43231000      -1.20561000      -1.07264000       8.57980000      -0.56420000       0.36503000      -2.26673000      -0.07281000      -0.09167000      -0.11924000
Si       0.85793681      -3.24341093      -4.49500232    2910.85773629        0        0        0        1        1       0.00000000       0.00000000       0.00000000       0.00000000      -0.00000284      -0.00000781       0.00000369       0.85794413      -3.24341167      -4.49500763       0.85794413      -3.24341167      -4.49500763        0        0        0       45       0.20482100      -0.37031900      -0.35940000       0.00000000       0.00000000       0.00000000      28.08550000       5.31467000       1.27632000      -3.42052000      -5.18314000      -1.33036000       4.34151000      -0.12235000       0.03237000      -0.85106000       0.00918000      -0.02167000       0.06993000
Si       0.68510524      -3.42828067      -0.70550020    2910.85773629        0        0        0        1        1       0.00000000       0.00000000       0.00000000       0.00000000       0.00000124      -0.00000474       0.00000473       0.68509430      -3.42828373      -0.70550528       0.68509430      -3.42828373      -0.70550528        0        0        0       45       0.20475200      -0.37110500      -0.02520200       0.00000000       0.00000000       0.00000000      28.08550000       4.78979000       0.68825000      -2.50491000      -4.65201000      -0.80539000       3.39693000      -0.12010000       0.08374000      -0.81906000       0.01768000      -0.03340000       0.07296000
Si       4.09273969      -2.99727866      -2.43455806    2910.85773629        0        0        0        1        1       0.00000000       0.00000000       0.00000000       0.00000000      -0.00000423      -0.00000541       0.00000829       4.09273951      -2.99727945      -2.43455862       4.09273951      -2.99727945      -2.43455862        0        0        0       46       0.32672400      -0.36655400      -0.18621800       0.00000000       0.00000000       0.00000000      28.08550000       5.77714000       0.52778000      -1.19279000      -5.14979000      -0.79763000       1.17544000      -0.55810000       0.28467000       0.06783000       0.06925000       0.01483000       0.05048000
Si       3.93716172      -3.17174924       1.34909273    2910.85773629        0        0        0        1        1       0.00000000       0.00000000       0.00000000       0.00000000       0.00000978       0.00000172       0.00000953       3.93715177      -3.17175248       1.34909744       3.93715177      -3.17175248       1.34909744        0        0        0       46       0.32685000      -0.36643800       0.14732900       0.00000000       0.00000000       0.00000000      28.08550000       5.49340000      -0.07742000       2.09159000      -4.77629000      -0.17292000      -2.16715000      -0.65143000       0.27873000       0.14937000       0.06569000       0.02840000       0.07381000
Si       7.57121529      -2.61417214      -3.92833120    2910.85773629        0        0        0        1        1       0.00000000       0.00000000       0.00000000       0.00000000       0.00003086       0.00001972      -0.00000578       7.57120614      -2.61417234      -3.92833026       7.57120614      -2.61417234      -3.92833026        0        0        0       42       0.45398000      -0.36668200      -0.32620100       0.00000000       0.00000000       0.00000000      28.08550000      -2.75843000       0.79763000       1.38300000       3.93780000      -0.70126000      -2.44476000      -1.11091000      -0.01068000       1.01611000       0.06847000       0.08569000      -0.04565000
Si       7.40810861      -2.74847751      -0.14130756    2910.85773629        0        0        0        1        1       0.00000000       0.00000000       0.00000000       0.00000000       0.00001489       0.00003262       0.00001313       7.40809636      -2.74848284      -0.14130337       7.40809636      -2.74848284      -0.14130337        0        0        0       43       0.45173100      -0.36224500       0.00721200       0.00000000       0.00000000       0.00000000      28.08550000      -1.34305000      -0.49223000       4.68977000       2.40230000       0.58216000      -6.00613000      -1.01148000       0.05435000       1.27063000       0.04777000       0.14428000      -0.04573000
Si     -15.93320698      -4.86643146      -2.48419452    2910.85773629        0        0        0        1        1       0.00000000       0.00000000       0.00000000       0.00000000       0.00002343       0.00000717      -0.00001257     -15.93320988      -4.86643076      -2.48419002     -15.93320988      -4.86643076      -2.48419002        0        0        0       43      -0.41791900      -0.36920400      -0.14162200       0.00000000       0.00000000       0.00000000      28.08550000      -8.29098000      -3.81923000       1.20611000       9.19647000       4.00909000      -1.68537000      -0.82878000      -0.08978000       0.42397000       0.07672000       0.10009000      -0.05529000
Si     -16.04221199      -5.07496478       1.30103098    2910.85773629        0        0        0        1        1       0.00000000       0.00000000       0.00000000       0.00000000       0.00000958       0.00000722      -0.00000430     -16.04222996      -5.07497118       1.30103182     -16.04222996      -5.07497118       1.30103182        0        0        0       42      -0.41409500      -0.37312300       0.19237000       0.00000000       0.00000000       0.00000000      28.08550000      -6.30796000      -4.61492000       1.60896000       6.78876000       4.77519000      -2.24356000      -0.42664000      -0.11387000       0.56120000       0.05417000       0.04641000      -0.07341000
Si     -11.46049557      -3.63921999      -2.17666804    2910.85773629        0        0        0        1        1       0.00000000       0.00000000       0.00000000       0.00000000      -0.00000077       0.00000891      -0.00000248     -11.46048140      -3.63921697      -2.17666960     -11.46048140      -3.63921697      -2.17666960        0        0        0       45      -0.29325500      -0.28194800      -0.13449000       0.00000000       0.00000000       0.00000000      28.08550000      -5.71473000      -1.27323000      -0.63510000       6.04346000       1.15714000       0.71969000      -0.35876000       0.16260000      -0.13848000      -0.03002000       0.04652000      -0.05390000
Si     -11.61981883      -3.81779399       1.60031211    2910.85773629        0        0        0        1        1       0.00000000       0.00000000       0.00000000       0.00000000      -0.00000550       0.00001088      -0.00000211     -11.61982078      -3.81779267       1.60031030     -11.61982078      -3.81779267       1.60031030        0        0        0       44      -0.29307200      -0.28225800       0.19852300       0.00000000       0.00000000       0.00000000      28.08550000      -5.08231000      -1.44575000      -0.00147000       5.25715000       1.36427000       0.12392000      -0.20423000       0.10960000      -0.17630000      -0.02938000       0.02812000      -0.05386000
Si      -8.04607459      -3.22196259      -3.95597039    2910.85773629        0        0        0        1        1       0.00000000       0.00000000       0.00000000       0.00000000       0.00000039       0.00000855      -0.00000321      -8.04607669      -3.22196365      -3.95597641      -8.04607669      -3.22196365      -3.95597641        0        0        0       44      -0.17026400      -0.27913700      -0.29976600       0.00000000       0.00000000       0.00000000      28.08550000      -2.34091000       3.84119000      -0.63854000       2.46268000      -4.15517000       0.35421000      -0.11238000       0.32334000       0.19887000       0.00940000       0.00936000      -0.08546000
Si      -8.21923656      -3.37207388      -0.17474064    2910.85773629        0        0        0        1        1       0.00000000       0.00000000       0.00000000       0.00000000      -0.00000023       0.00000356      -0.00000988      -8.21922818      -3.37207035      -0.17473639      -8.21922818      -3.37207035      -0.17473639        0        0        0       44      -0.17212200      -0.27629400       0.03332700       0.00000000       0.00000000       0.00000000      28.08550000      -3.08053000       4.05251000       1.54164000       3.30213000      -4.21684000      -1.73831000      -0.20361000       0.15311000       0.10914000       0.01800000      -0.01122000      -0.08754000
Si      -4.81024298      -3.03212710      -2.11561066    2910.85773629        0        0        0        1        1       0.00000000       0.00000000       0.00000000       0.00000000       0.00003627       0.00002750       0.00000481      -4.81024192      -3.03212664      -2.11561626      -4.81024192      -3.03212664      -2.11561626        0        0        0       43      -0.04530200      -0.28230300      -0.14524600       0.00000000       0.00000000       0.00000000      28.08550000      -0.71719000       6.50814000      -0.62754000      -0.02303000      -6.53940000       0.25497000       0.80908000       0.24906000       0.36340000       0.06886000       0.21780000      -0.00917000
Si      -4.97337465      -3.23714796       1.70057191    2910.85773629        0        0        0        1        1       0.00000000       0.00000000       0.00000000       0.00000000       0.00003202       0.00003390       0.00001502      -4.97337941      -3.23714993       1.70057046      -4.97337941      -3.23714993       1.70057046        0        0        0       44      -0.04394800      -0.28518700       0.19149600       0.00000000       0.00000000       0.00000000      28.08550000      -1.19284000       5.44951000       2.59627000       0.54609000      -5.52018000      -3.38523000       0.73923000       0.19936000       0.72717000       0.09248000       0.12871000      -0.06179000
Si      -1.41395032      -2.66612066      -4.41091736    2910.85773629        0        0        0        1        1       0.00000000       0.00000000       0.00000000       0.00000000      -0.00001699       0.00000327       0.00002105      -1.41394197      -2.66611600      -4.41091093      -1.41394197      -2.66611600      -4.41091093        0        0        0       43       0.07986400      -0.28703400      -0.35513200       0.00000000       0.00000000       0.00000000      28.08550000       6.01704000       5.77630000       8.80954000      -5.99072000      -6.17423000     -10.90529000      -0.05990000       0.45950000       2.21992000      -0.03359000       0.06157000       0.12416000
Si      -1.58483787      -2.85067012      -0.61448220    2910.85773629        0        0        0        1        1       0.00000000       0.00000000       0.00000000       0.00000000      -0.00001973       0.00001094       0.00002754      -1.58483254      -2.85066651      -0.61448288      -1.58483254      -2.85066651      -0.61448288        0        0        0       43       0.07985600      -0.28777400      -0.02033300       0.00000000       0.00000000       0.00000000      28.08550000       5.66170000       5.57730000      10.23014000      -5.63174000      -5.97512000     -12.42383000      -0.07915000       0.49173000       2.32131000      -0.04918000       0.09392000       0.12761000
Si       1.79358494      -2.42225198      -2.53360316    2910.85773629        0        0        0        1        1       0.00000000       0.00000000       0.00000000       0.00000000       0.00001825      -0.00000491       0.00002453       1.79357164      -2.42225315      -2.53360856       1.79357164      -2.42225315      -2.53360856        0        0        0       42       0.20084900      -0.28406500      -0.19792700       0.00000000       0.00000000       0.00000000      28.08550000       7.18415000       2.77967000       2.31422000      -7.78150000      -3.35661000      -3.35045000       0.58222000       0.57232000       1.09661000      -0.01513000      -0.00461000       0.06037000
Si       1.63153349      -2.60787019       1.25046598    2910.85773629        0        0        0        1        1       0.00000000       0.00000000       0.00000000       0.00000000       0.00002788      -0.00000851       0.00002399       1.63151980      -2.60787298       1.25046558       1.63151980      -2.60787298       1.25046558        0        0        0       43       0.20127400      -0.28505900       0.13578800       0.00000000       0.00000000       0.00000000      28.08550000       7.75132000       2.30042000       4.41509000      -8.47538000      -2.92015000      -5.36664000       0.73408000       0.62471000       1.00782000       0.01002000       0.00498000       0.05627000
Si       5.25658047      -2.03796333      -4.24003549    2910.85773629        0        0        0        1        1       0.00000000       0.00000000       0.00000000       0.00000000       0.00002311      -0.00000995       0.00001576       5.25658380      -2.03796099      -4.24003420       5.25658380      -2.03796099      -4.24003420        0        0        0       43       0.32752300      -0.28487300      -0.35652800       0.00000000       0.00000000       0.00000000      28.08550000      12.38557000       2.44939000      -2.32139000     -13.71911000      -2.77612000       2.09252000       1.28171000       0.26892000       0.23520000      -0.05183000      -0.05780000       0.00633000
Si       5.07814455      -2.18914655      -0.45619408    2910.85773629        0        0        0        1        1       0.00000000       0.00000000       0.00000000       0.00000000       0.00003068      -0.00000752       0.00002229       5.07815637      -2.18914217      -0.45619447       5.07815637      -2.18914217      -0.45619447        0        0        0       44       0.32549700      -0.28208000      -0.02318700       0.00000000       0.00000000       0.00000000      28.08550000      13.10169000      -1.45477000       0.27702000     -14.60465000       0.86599000      -0.47500000       1.48470000       0.54796000       0.21617000      -0.01826000      -0.04082000       0.01818000
Si       8.57736700      -1.78691492      -1.92478132    2910.85773629        0        0        0        1        1       0.00000000       0.00000000       0.00000000       0.00000000      -0.00004224       0.00000027       0.00000979       8.57735251      -1.78691850      -1.92478347       8.57735251      -1.78691850      -1.92478347        0        0        0       41       0.45262900      -0.28028100      -0.16120300       0.00000000       0.00000000       0.00000000      28.08550000       0.72818000      -3.35469000      -3.39937000      -1.66014000       2.90759000       4.34007000       0.90869000       0.41454000      -0.94595000      -0.02326000      -0.03256000      -0.00525000
Si       8.49118277      -2.00165341       1.87616994    2910.85773629        0        0        0        1        1       0.00000000       0.00000000       0.00000000       0.00000000      -0.00004973       0.00000173      -0.00000354       8.49118537      -2.00165092       1.87617351       8.49118537      -2.00165092       1.87617351        0        0        0       42       0.45771900      -0.28500500       0.17420200       0.00000000       0.00000000       0.00000000      28.08550000      -3.49948000      -4.06121000      -2.30033000       3.30417000       3.83980000       3.72232000       0.13129000       0.23753000      -1.36753000      -0.06402000       0.01613000       0.05446000
Si     -14.71205393      -3.92785026      -4.26143564    2910.85773629        0        0        0        1        1       0.00000000       0.00000000       0.00000000       0.00000000      -0.00002396      -0.00001336       0.00000217     -14.71204589      -3.92784587      -4.26143224     -14.71204589      -3.92784587      -4.26143224        0        0        0       44      -0.41367000      -0.29013800      -0.30931300       0.00000000       0.00000000       0.00000000      28.08550000      -6.96195000      -5.54396000      -2.41585000       6.99910000       5.36393000       3.01304000      -0.11014000       0.16669000      -0.59815000      -0.07298000      -0.01333000      -0.00096000
Si     -14.89866632      -4.07900140      -0.49380900    2910.85773629        0        0        0        1        1       0.00000000       0.00000000       0.00000000       0.00000000      -0.00001679       0.00000287       0.00000708     -14.89865266      -4.07900038      -0.49380382     -14.89865266      -4.07900038      -0.49380382        0        0        0       44      -0.41603100      -0.28733500       0.02261900       0.00000000       0.00000000       0.00000000      28.08550000      -6.02488000      -4.86758000      -2.35711000       5.91569000       4.79729000       2.97189000       0.06944000       0.05347000      -0.60965000      -0.03975000      -0.01682000       0.00512000
Si     -11.53899225      -1.29631315      -1.99879503    2910.85773629        0        0        0        1        1       0.00000000       0.00000000       0.00000000       0.00000000       0.00001103       0.00000160      -0.00000150     -11.53899447      -1.29631652      -1.99880084     -11.53899447      -1.29631652      -1.99880084        0        0        0       45      -0.41664600      -0.03348500      -0.14447200       0.00000000       0.00000000       0.00000000      28.08550000       0.82292000      -0.62716000       0.81538000      -1.42755000       0.94924000      -0.96596000       0.60419000      -0.26872000       0.19502000      -0.00044000       0.05338000       0.04443000
Si     -11.73233452      -1.47486407       1.77352602    2910.85773629        0        0        0        1        1       0.00000000       0.00000000       0.00000000       0.00000000      -0.00000591      -0.00000247      -0.00000294     -11.73232158      -1.47486130       1.77352180     -11.73232158      -1.47486130       1.77352180        0        0        0       45      -0.41788900      -0.03348300       0.18818100       0.00000000       0.00000000       0.00000000      28.08550000      -0.61077000      -0.65270000       1.44039000       0.41984000       0.77683000      -1.73124000       0.20180000      -0.12980000       0.29294000       0.01087000      -0.00567000       0.00208000
Si      -8.15551195      -0.87979402      -3.70946098    2910.85773629        0        0        0        1        1       0.00000000       0.00000000       0.00000000       0.00000000       0.00001583      -0.00001559      -0.00000258      -8.15551594      -0.87979180      -3.70945605      -8.15551594      -0.87979180      -3.70945605        0        0        0       44      -0.29495700      -0.03014300      -0.30368400       0.00000000       0.00000000       0.00000000      28.08550000       3.33180000       4.95047000       2.18598000      -3.93740000      -4.54722000      -2.94887000       0.63388000      -0.40540000       0.77928000       0.02829000      -0.00214000       0.01639000
Si      -8.32567983      -1.03771921       0.07812365    2910.85773629        0        0        0        1        1       0.00000000       0.00000000       0.00000000       0.00000000       0.00001807      -0.00001532      -0.00000200      -8.32567821      -1.03772327       0.07812511      -8.32567821      -1.03772327       0.07812511        0        0        0       43      -0.29629300      -0.02812400       0.03004700       0.00000000       0.00000000       0.00000000      28.08550000       3.14748000       5.57158000       3.41489000      -3.77040000      -5.31479000      -4.12192000       0.64171000      -0.27149000       0.73859000       0.01879000      -0.01470000       0.03156000
Si      -4.97273508      -0.75590935      -1.52044808    2910.85773629        0        0        0        1        1       0.00000000       0.00000000       0.00000000       0.00000000       0.00021990       0.00008112      -0.00007451      -4.97274101      -0.75590629      -1.52044851      -4.97274101      -0.75590629      -1.52044851        0        0        0       41      -0.16905400      -0.03817800      -0.11782700       0.00000000       0.00000000       0.00000000      28.08550000      -3.72268000      15.09868000       7.51564000       3.36247000     -14.91332000      -8.67902000       0.97654000       0.12325000       0.97599000       0.61634000       0.30863000      -0.18740000
Si      -5.12570441      -0.95362905       2.27175316    2910.85773629        0        0        0        1        1       0.00000000       0.00000000       0.00000000       0.00000000       0.00021677       0.00008824      -0.00007098      -5.12570130      -0.95362806       2.27175390      -5.12570130      -0.95362806       2.27175390        0        0        0       41      -0.16763300      -0.04049900       0.21672000       0.00000000       0.00000000       0.00000000      28.08550000      -4.01728000      13.97034000       7.66118000       3.53467000     -13.66636000      -8.65981000       1.06693000       0.03246000       0.88651000       0.58434000       0.33644000      -0.11213000
Si      -1.94293977      -0.57055080      -1.11884094    2910.85773629        0        0        0        1        1       0.00000000       0.00000000       0.00000000       0.00000000      -0.00021066       0.00005509       0.00011291      -1.94293795      -0.57055369      -1.11884266      -1.94293795      -0.57055369      -1.11884266        0        0        0       46      -0.05164200      -0.04627500      -0.08898700       0.00000000       0.00000000       0.00000000      28.08550000       1.54882000      13.98982000      -6.53046000      -0.61821000     -13.40279000       7.86360000      -1.53755000      -0.22045000      -1.04401000      -0.60693000       0.36659000       0.28912000
Si      -2.09048556      -0.74340954       2.67397835    2910.85773629        0        0        0        1        1       0.00000000       0.00000000       0.00000000       0.00000000      -0.00019787       0.00004951       0.00012347      -2.09047291      -0.74340566       2.67398060      -2.09047291      -0.74340566       2.67398060        0        0        0       46      -0.05126700      -0.04602600       0.24533400       0.00000000       0.00000000       0.00000000      28.08550000       2.02085000      13.68010000      -6.40241000      -1.24516000     -13.07013000       7.81129000      -1.30010000      -0.24585000      -1.04291000      -0.52440000       0.36413000       0.36596000
Si       1.17849543      -0.28947934       1.09273451    2910.85773629        0        0        0        1        1       0.00000000       0.00000000       0.00000000       0.00000000      -0.00002139      -0.00001927      -0.00001494       1.17847909      -0.28948253       1.09272932       1.17847909      -0.28948253       1.09272932        0        0        0       44       0.06362300      -0.03704800       0.09721100       0.00000000       0.00000000       0.00000000      28.08550000      -3.75720000      -1.67342000      -1.78524000       4.82706000       2.73555000       2.83257000      -1.24205000      -1.00503000      -1.13948000      -0.17218000       0.05712000      -0.09216000