4
Lattice="6.662612 0.0 0.0 0.0 7.28 0.0 0.0 0.0 7.693322" Properties=species:S:1:pos:R:3:frac_pos:R:3:dft_force:R:3:map_shift:I:3:n_neighb:I:1:gap_force:R:3 config_type=sp dft_energy=-639.93807173 gap_energy=-640.04760606 gap_virial="-0.91045896 -2.38659154 0.81998933 -2.38659154 73.83886464 7.39609498 0.81998933 7.39609498 -2.04046827" cutoff=5.5 nneightol=1.2 pbc="T T T"
Si       0.06478058       0.06734728      -0.34418384       0.00972300       0.00925100      -0.04473800       0.79328000       0.34951000      -3.57934000        0        0        0        4      -0.37280226      -0.49269756       1.42403011
Si      -0.25639730       1.81273456       0.10773728      -0.03848300       0.24900200       0.01400400      -3.54169000      -4.08548000       0.13780000        0        0        0        4       1.73158866      -2.68578395      -0.60537190
Si      -0.01602358       3.51524992       0.35672395      -0.00240500       0.48286400       0.04636800       2.01888000      13.14040000       2.08405000        0        0        0        5       0.71629339      16.55775629      -3.31983515
Si       0.20763364       5.56978968      -0.12028509       0.03116400       0.76508100      -0.01563500       0.72953000      -9.40444000       1.35748000        0       -1        0        5      -2.07507979     -13.37927478       2.50117694
4
Lattice="6.662612 0.0 0.0 0.0 7.28 0.0 0.0 0.0 7.693322" Properties=species:S:1:pos:R:3:frac_pos:R:3:dft_force:R:3:map_shift:I:3:n_neighb:I:1:gap_force:R:3 config_type=sp dft_energy=-638.94102964 gap_energy=-636.91987006 gap_virial="-0.3730672 2.33904632 -1.49131251 2.33904632 66.78096436 12.15731285 -1.49131251 12.15731285 0.58596042" cutoff=5.5 nneightol=1.2 pbc="T T T"
Si       0.25116715       0.07519512      -0.41942453       0.03769800       0.01032900      -0.05451800       5.19041000      -2.13372000      -5.47926000        0        0        0        4      -0.01200227      -1.61067063      -3.06997129
Si      -0.00808175       1.77318960       0.02618807      -0.00121300       0.24357000       0.00340400      -1.90784000      -0.69071000      -0.72844000        0        0        0        4       0.47253485      -2.34242961       0.25262975
Si      -0.03776368       3.44252272       0.47801687      -0.00566800       0.47287400       0.06213400      -0.16908000      15.16791000       3.54630000        0        0        0        5      -2.75012963      21.10572967      -0.83408606
Si      -0.20531505       5.67421400      -0.08478041      -0.03081600       0.77942500      -0.01102000      -3.11349000     -12.34348000       2.66140000        0       -1        0        5       2.28959704     -17.15262942       3.65142759
4
Lattice="6.662612 0.0 0.0 0.0 7.28 0.0 0.0 0.0 7.693322" Properties=species:S:1:pos:R:3:frac_pos:R:3:dft_force:R:3:map_shift:I:3:n_neighb:I:1:gap_force:R:3 config_type=sp dft_energy=-638.66981658 gap_energy=-633.33040487 gap_virial="1.66703458 10.23074196 -1.57429738 10.23074196 56.87754879 8.78644912 -1.57429738 8.78644912 2.25185923" cutoff=5.5 nneightol=1.2 pbc="T T T"
Si       0.14636426       0.08671936       0.03315052       0.02196800       0.01191200       0.00430900       3.70274000      -3.52727000       4.82913000        0        0        0        4       0.54378950       0.57311198       0.87916770
Si       0.28563284       1.78993360      -0.33110519       0.04287100       0.24587000      -0.04303800       2.72284000       3.72544000      -9.22224000        0        0        0        4       3.03279152       1.90729207      -4.30465592
Si       0.06080300       3.35318256       0.44721281       0.00912600       0.46060200       0.05813000      -2.06331000      13.49078000       5.50140000        0        0        0        5      -1.88106083      15.13671118       2.19409162
Si      -0.49280010       5.73529320      -0.14926583      -0.07396500       0.78781500      -0.01940200      -4.36227000     -13.68895000      -1.10829000        0       -1        0        5      -1.69552019     -17.61711523       1.23139660
4
Lattice="6.662612 0.0 0.0 0.0 7.28 0.0 0.0 0.0 7.693322" Properties=species:S:1:pos:R:3:frac_pos:R:3:dft_force:R:3:map_shift:I:3:n_neighb:I:1:gap_force:R:3 config_type=sp dft_energy=-639.18860661 gap_energy=-634.68578759 gap_virial="4.44481938 6.54250334 1.54802115 6.54250334 30.25698499 -0.56497119 1.54802115 -0.56497119 15.88949366" cutoff=5.5 nneightol=1.2 pbc="T T T"
Si       0.13321226       0.22229480       0.18873258       0.01999400       0.03053500       0.02453200       2.87668000      -6.88751000      10.51477000        0        0        0        4       2.84993148      -3.09591678       8.81825123
Si       0.26515863       1.75168448      -0.59440914       0.03979800       0.24061600      -0.07726300       1.42506000       9.36088000     -13.48095000        0        0        0        4       1.80032672       6.95227604     -13.27439071
Si       0.25337247       3.07511568       0.71694068       0.03802900       0.42240600       0.09319000      -0.31921000       7.13722000       5.34393000        0        0        0        5       0.61542006       2.87046666       7.50997860
Si      -0.65174337       5.91602648      -0.31127181      -0.09782100       0.81264100      -0.04046000      -3.98253000      -9.61059000      -2.37774000        0       -1        0        5      -5.26567826      -6.72682592      -3.05383912
4
Lattice="6.662612 0.0 0.0 0.0 7.28 0.0 0.0 0.0 7.693322" Properties=species:S:1:pos:R:3:frac_pos:R:3:dft_force:R:3:map_shift:I:3:n_neighb:I:1:gap_force:R:3 config_type=sp dft_energy=-638.56746435 gap_energy=-633.97061553 gap_virial="9.89420437 3.54191346 9.12145362 3.54191346 28.09624939 1.0681579 9.12145362 1.0681579 11.03228808" cutoff=5.5 nneightol=1.2 pbc="T T T"
Si       0.34301125       0.10828272       0.28221413       0.05148300       0.01487400       0.03668300      10.96271000      -4.11085000      10.85261000        0        0        0        4      10.34734949      -3.10853366       9.83985175
Si      -0.06901134       1.63948512      -0.44478172      -0.01035800       0.22520400      -0.05781400      -6.05850000       5.88186000     -11.29016000        0        0        0        4      -6.19820490       3.25085735     -10.35561330
Si       0.40113588       3.16441944       0.46176088       0.06020700       0.43467300       0.06002100       2.10705000       9.09853000       4.35327000        0        0        0        5       2.89510330       4.40075078       4.99855042
Si      -0.67514246       6.05293416      -0.29919329      -0.10133300       0.83144700      -0.03889000      -7.01126000     -10.86954000      -3.91572000        0       -1        0        5      -7.04424789      -4.54307446      -4.48278887
4
Lattice="6.662612 0.0 0.0 0.0 7.28 0.0 0.0 0.0 7.693322" Properties=species:S:1:pos:R:3:frac_pos:R:3:dft_force:R:3:map_shift:I:3:n_neighb:I:1:gap_force:R:3 config_type=sp dft_energy=-639.13677732 gap_energy=-633.68118763 gap_virial="4.11121606 9.24089701 1.84043944 9.24089701 47.28497441 -3.05524483 1.84043944 -3.05524483 0.58757546" cutoff=5.5 nneightol=1.2 pbc="T T T"
Si       0.42049743       0.07839832       0.22744537       0.06311300       0.01076900       0.02956400       8.25524000      -6.02630000       3.64537000        0        0        0        4       6.44892267      -3.85772138       2.04270186
Si      -0.10343705       1.72410784      -0.20665032      -0.01552500       0.23682800      -0.02686100      -7.64517000      -4.39545000      -4.15664000        0        0        0        4      -2.23837066      -4.98182809      -1.52008830
Si       0.24206602       3.38173472      -0.11662307       0.03633200       0.46452400      -0.01515900       3.03778000      18.99762000       1.36182000        0        0        0        5      -1.48066876      19.08427791       0.66407028
Si      -0.55912640       5.78088056       0.09582033      -0.08392000       0.79407700       0.01245500      -3.64785000      -8.57587000      -0.85055000        0       -1        0        5      -2.72988324     -10.24472844      -1.18668383
4
Lattice="6.662612 0.0 0.0 0.0 7.28 0.0 0.0 0.0 7.693322" Properties=species:S:1:pos:R:3:frac_pos:R:3:dft_force:R:3:map_shift:I:3:n_neighb:I:1:gap_force:R:3 config_type=sp dft_energy=-639.41395754 gap_energy=-634.04748162 gap_virial="17.81799169 3.64757831 -0.95588481 3.64757831 27.67856402 -0.81057128 -0.95588481 -0.81057128 0.18451374" cutoff=5.5 nneightol=1.2 pbc="T T T"
Si       0.43142411       0.19722248       0.07766409       0.06475300       0.02709100       0.01009500      12.32814000      -0.40860000       0.51871000        0        0        0        4      11.81445369       0.41443519       0.02178301
Si      -0.53145657       1.71130960       0.03876665      -0.07976700       0.23507000       0.00503900     -13.28789000       1.66352000       1.01874000        0        0        0        4     -13.71172968       1.66943588       1.09964359
Si       0.53486783       3.14811952      -0.17004550       0.08027900       0.43243400      -0.02210300       6.13562000      10.64550000      -1.28235000        0        0        0        5       6.45431035       3.55765846      -0.89564071
Si      -0.43483537       5.90847712       0.05362245      -0.06526500       0.81160400       0.00697000      -5.17587000     -11.90041000      -0.25510000        0       -1        0        5      -4.55703436      -5.64152954      -0.22578589
4
Lattice="6.662612 0.0 0.0 0.0 7.28 0.0 0.0 0.0 7.693322" Properties=species:S:1:pos:R:3:frac_pos:R:3:dft_force:R:3:map_shift:I:3:n_neighb:I:1:gap_force:R:3 config_type=sp dft_energy=-640.40372855 gap_energy=-634.1365864 gap_virial="13.84730608 9.09977968 -3.93954867 9.09977968 31.18105364 1.11021147 -3.93954867 1.11021147 1.48200333" cutoff=5.5 nneightol=1.2 pbc="T T T"
Si       0.35259209       0.13804336      -0.19800303       0.05292100       0.01896200      -0.02573700       9.92787000       6.61587000      -2.04483000        0        0        0        4       9.44399497       5.95967670      -2.26504004
Si      -0.50100843       1.74117216       0.32889721      -0.07519700       0.23917200       0.04275100      -8.56695000      -0.50470000       3.26496000        0        0        0        4     -10.61640568      -0.50018364       3.82236703
Si       0.54482177       3.24029888       0.07254803       0.08177300       0.44509600       0.00943000       4.55405000       8.97813000      -1.47232000        0        0        0        5       6.01693373       4.86996636      -1.95830604
Si      -0.39639876       5.84561432      -0.20344221      -0.05949600       0.80296900      -0.02644400      -5.91497000     -15.08929000       0.25218000        0       -1        0        5      -4.84452303     -10.32945942       0.40097905
4
Lattice="6.662612 0.0 0.0 0.0 7.28 0.0 0.0 0.0 7.693322" Properties=species:S:1:pos:R:3:frac_pos:R:3:dft_force:R:3:map_shift:I:3:n_neighb:I:1:gap_force:R:3 config_type=sp dft_energy=-641.07921886 gap_energy=-635.59875472 gap_virial="13.07721312 7.40813967 -7.10360754 7.40813967 24.11136715 1.4867916 -7.10360754 1.4867916 7.40226399" cutoff=5.5 nneightol=1.2 pbc="T T T"
Si       0.35572352       0.24130288      -0.36077834       0.05339100       0.03314600      -0.04689500       8.11684000       1.97605000      -4.36965000        0        0        0        4       9.62301029       3.20555339      -5.18342550
Si      -0.37916259       1.64806096       0.63256801      -0.05690900       0.22638200       0.08222300      -7.62661000      -0.53966000       6.94399000        0        0        0        4      -9.81571849      -0.59632465       9.11892133
Si       0.53749956       3.16786288       0.09493559       0.08067400       0.43514600       0.01234000       3.94777000       8.21564000      -2.76178000        0        0        0        5       5.73569657       4.47001641      -3.63770788
Si      -0.51405383       5.90789472      -0.36672527      -0.07715500       0.81152400      -0.04766800      -4.43801000      -9.65203000       0.18744000        0       -1        0        5      -5.54298837      -7.07924514      -0.29778795
4
Lattice="6.662612 0.0 0.0 0.0 7.28 0.0 0.0 0.0 7.693322" Properties=species:S:1:pos:R:3:frac_pos:R:3:dft_force:R:3:map_shift:I:3:n_neighb:I:1:gap_force:R:3 config_type=sp dft_energy=-640.82188169 gap_energy=-635.41898853 gap_virial="11.8257869 6.78889424 -2.68526851 6.78889424 33.14890443 -0.13633581 -2.68526851 -0.13633581 7.67510579" cutoff=5.5 nneightol=1.2 pbc="T T T"
Si       0.39804443       0.07203560      -0.13591792       0.05974300       0.00989500      -0.01766700       6.73957000      -4.87696000      -3.79915000        0        0        0        4       8.01598788      -2.90018912      -3.43580827
Si       0.00095942       1.69985816       0.59208575       0.00014400       0.23349700       0.07696100      -5.37386000      -0.21961000       9.33242000        0        0        0        4      -4.82946861      -0.54627484       9.95903705
Si       0.48541126       3.25090584      -0.18213940       0.07285600       0.44655300      -0.02367500       2.52102000      11.30463000      -5.05049000        0        0        0        5       4.24980528       8.02432159      -5.18055522
Si      -0.88441510       5.94232912      -0.27402844      -0.13274300       0.81625400      -0.03561900      -3.88673000      -6.20806000      -0.48278000        0       -1        0        5      -7.43632456      -4.57785763      -1.34267356
4
Lattice="6.662612 0.0 0.0 0.0 7.28 0.0 0.0 0.0 7.693322" Properties=species:S:1:pos:R:3:frac_pos:R:3:dft_force:R:3:map_shift:I:3:n_neighb:I:1:gap_force:R:3 config_type=sp dft_energy=-639.6409724 gap_energy=-633.5573395 gap_virial="9.05990043 7.05171996 -0.67822242 7.05171996 42.45641105 -2.09066283 -0.67822242 -2.09066283 5.58106131" cutoff=5.5 nneightol=1.2 pbc="T T T"
Si       0.36543094       0.05302752       0.00320042       0.05484800       0.00728400       0.00041600       7.59994000      -8.22195000      -3.79484000        0        0        0        4       7.39179625      -4.55171971      -2.35028985
Si       0.13433825       1.72285568       0.45909130       0.02016300       0.23665600       0.05967400      -3.09103000       5.20401000       9.54027000        0        0        0        4      -1.31143034       2.39953949       7.89810732
Si       0.29184239       3.30112328      -0.39372883       0.04380300       0.45345100      -0.05117800       0.44752000      11.59391000      -5.25956000        0        0        0        5       1.58903627       9.31876022      -4.86599695
Si      -0.79160492       5.88812224      -0.06856289      -0.11881300       0.80880800      -0.00891200      -4.95643000      -8.57597000      -0.48587000        0       -1        0        5      -7.66940218      -7.16657999      -0.68182051
4
Lattice="6.662612 0.0 0.0 0.0 7.28 0.0 0.0 0.0 7.693322" Properties=species:S:1:pos:R:3:frac_pos:R:3:dft_force:R:3:map_shift:I:3:n_neighb:I:1:gap_force:R:3 config_type=sp dft_energy=-637.34921825 gap_energy=-632.06215865 gap_virial="6.55584595 1.75850989 -5.50258396 1.75850989 37.22835146 -4.50458983 -5.50258396 -4.50458983 9.8580758" cutoff=5.5 nneightol=1.2 pbc="T T T"
Si       0.41226911       0.13274352      -0.07777179       0.06187800       0.01823400      -0.01010900      11.86488000      -3.28541000      -8.11860000        0        0        0        4       9.07446644      -1.91551250      -6.43081910
Si      -0.09225719       1.72884712       0.35714709      -0.01384700       0.23747900       0.04642300      -6.29659000       4.81603000      12.01613000        0        0        0        4      -4.98472517       2.55909829      10.02080776
Si       0.08716695       3.16095416      -0.66121025       0.01308300       0.43419700      -0.08594600       1.06291000      12.48400000      -7.20159000        0        0        0        5       1.39495623       5.10221208      -6.85478003
Si      -0.40717887       5.94257664       0.38182726      -0.06111400       0.81628800       0.04963100      -6.63120000     -14.01462000       3.30406000        0       -1        0        5      -5.48469750      -5.74579786       3.26479137
4
Lattice="6.662612 0.0 0.0 0.0 7.28 0.0 0.0 0.0 7.693322" Properties=species:S:1:pos:R:3:frac_pos:R:3:dft_force:R:3:map_shift:I:3:n_neighb:I:1:gap_force:R:3 config_type=sp dft_energy=-639.00546539 gap_energy=-633.01351128 gap_virial="1.35988471 -0.41750322 -4.22231058 -0.41750322 31.16367054 -5.15075115 -4.22231058 -5.15075115 12.82298548" cutoff=5.5 nneightol=1.2 pbc="T T T"
Si       0.19094380       0.17331496      -0.39449047       0.02865900       0.02380700      -0.05127700       4.49062000      -0.65140000     -13.14385000        0        0        0        4       3.60435421       0.78134005     -11.16515229
Si      -0.20446224       1.66769512       0.44622806      -0.03068800       0.22907900       0.05800200      -4.29192000       3.71170000      12.15092000        0        0        0        4      -3.61265396       1.20653283      11.17130074
Si      -0.01755598       3.23355032      -0.45672945      -0.00263500       0.44416900      -0.05936700       1.11955000      10.73167000      -4.76173000        0        0        0        5       1.38295403       5.31011171      -3.98734658
Si       0.03107442       5.89056104       0.40499186       0.00466400       0.80914300       0.05264200      -1.31825000     -13.79197000       5.75466000        0       -1        0        5      -1.37465428      -7.29798459       3.98119812
4
Lattice="6.662612 0.0 0.0 0.0 7.28 0.0 0.0 0.0 7.693322" Properties=species:S:1:pos:R:3:frac_pos:R:3:dft_force:R:3:map_shift:I:3:n_neighb:I:1:gap_force:R:3 config_type=sp dft_energy=-640.23761705 gap_energy=-634.28988131 gap_virial="2.45503556 -1.2607005 5.27255663 -1.2607005 25.62113065 -5.82711149 5.27255663 -5.82711149 13.71102667" cutoff=5.5 nneightol=1.2 pbc="T T T"
Si      -0.31596105       0.15223936      -0.46679231      -0.04742300       0.02091200      -0.06067500      -4.99224000       0.22338000      -9.49538000        0        0        0        4      -5.11058686       0.71553589     -10.68102181
Si       0.10430985       1.68387856       0.48003252       0.01565600       0.23130200       0.06239600       2.72199000      -2.80850000      11.16313000        0        0        0        4       3.30588176      -2.76951366      11.12958795
Si       0.01674981       3.22501088      -0.39045148       0.00251400       0.44299600      -0.05075200      -0.49227000      12.94072000      -5.82882000        0        0        0        5      -0.80669284       6.43303079      -4.62679184
Si       0.19490139       5.90399992       0.37721896       0.02925300       0.81098900       0.04903200       2.76252000     -10.35560000       4.16107000        0       -1        0        5       2.61139795      -4.37905301       4.17822570
4
Lattice="6.662612 0.0 0.0 0.0 7.28 0.0 0.0 0.0 7.693322" Properties=species:S:1:pos:R:3:frac_pos:R:3:dft_force:R:3:map_shift:I:3:n_neighb:I:1:gap_force:R:3 config_type=sp dft_energy=-640.1939206 gap_energy=-633.87167745 gap_virial="2.70082389 -2.56620616 5.58847452 -2.56620616 29.54691825 -5.17020772 5.58847452 -5.17020772 11.82439092" cutoff=5.5 nneightol=1.2 pbc="T T T"
Si      -0.24244579       0.17864392      -0.42289422      -0.03638900       0.02453900      -0.05496900      -4.55968000      -4.84465000      -8.78097000        0        0        0        4      -4.68332423      -1.70256250      -9.17240441
Si       0.14888939       1.71521168       0.41911680       0.02234700       0.23560600       0.05447800       5.18992000      -1.28959000      12.21998000        0        0        0        4       4.98298576      -1.47455832      11.21173613
Si      -0.17246837       3.23960000      -0.39605222      -0.02588600       0.44500000      -0.05148000      -2.27656000      14.03687000      -6.05206000        0        0        0        5      -2.05972509       8.22049807      -5.10354137
Si       0.26602477       5.83167312       0.39982194       0.03992800       0.80105400       0.05197000       1.64632000      -7.90262000       2.61306000        0       -1        0        5       1.76006356      -5.04337726       3.06420966
4
Lattice="6.662612 0.0 0.0 0.0 7.28 0.0 0.0 0.0 7.693322" Properties=species:S:1:pos:R:3:frac_pos:R:3:dft_force:R:3:map_shift:I:3:n_neighb:I:1:gap_force:R:3 config_type=sp dft_energy=-639.43621838 gap_energy=-633.57496633 gap_virial="5.45444442 -4.64469045 7.17998021 -4.64469045 45.73007056 -9.85127021 7.17998021 -9.85127021 10.21935849" cutoff=5.5 nneightol=1.2 pbc="T T T"
Si      -0.26967588       0.09972144      -0.16487558      -0.04047600       0.01369800      -0.02143100      -8.26848000      -5.52984000      -8.33637000        0        0        0        4      -6.60417703      -2.27450664      -6.98590040
Si       0.19548104       1.72336528       0.23811601       0.02934000       0.23672600       0.03095100       6.55579000       7.82686000       7.90225000        0        0        0        4       5.28473367       3.40653025       6.94341971
Si      -0.27569222       3.29613648      -0.62577481      -0.04137900       0.45276600      -0.08134000      -1.82732000       9.09897000      -3.38110000        0        0        0        5      -3.48269806       8.83634637      -6.27232875
Si       0.34989373       5.84589824       0.55253439       0.05251600       0.80300800       0.07182000       3.54002000     -11.39599000       3.81522000        0       -1        0        5       4.80214143      -9.96836998       6.31480944
4
Lattice="6.662612 0.0 0.0 0.0 7.28 0.0 0.0 0.0 7.693322" Properties=species:S:1:pos:R:3:frac_pos:R:3:dft_force:R:3:map_shift:I:3:n_neighb:I:1:gap_force:R:3 config_type=sp dft_energy=-637.81819249 gap_energy=-632.61457187 gap_virial="1.28468068 -6.58811467 3.77484163 -6.58811467 55.14919569 -15.36294722 3.77484163 -15.36294722 12.49378978" cutoff=5.5 nneightol=1.2 pbc="T T T"
Si       0.02953536       0.06915272      -0.22157537       0.00443300       0.00949900      -0.02880100      -1.39476000      -5.74753000     -10.81812000        0        0        0        4      -1.22351325      -2.22755238      -7.01395074
Si      -0.00272501       1.74697432       0.16446014      -0.00040900       0.23996900       0.02137700       1.82464000       5.30430000      10.03048000        0        0        0        4       1.45712418       1.34379807       5.95790772
Si      -0.27709803       3.30782816      -0.62402073      -0.04159000       0.45437200      -0.08111200      -1.71358000      13.40574000      -5.15372000        0        0        0        5      -2.62285870      12.77974342      -7.08005909
Si       0.25028768       5.84116624       0.68112826       0.03756600       0.80235800       0.08853500       1.28370000     -12.96251000       5.94136000        0       -1        0        5       2.38924777     -11.89598911       8.13610211
4
Lattice="6.662612 0.0 0.0 0.0 7.28 0.0 0.0 0.0 7.693322" Properties=species:S:1:pos:R:3:frac_pos:R:3:dft_force:R:3:map_shift:I:3:n_neighb:I:1:gap_force:R:3 config_type=sp dft_energy=-636.84563658 gap_energy=-632.46737506 gap_virial="0.79635011 -4.23143536 -0.28340445 -4.23143536 35.64907107 -4.85735984 -0.28340445 -4.85735984 17.03120158" cutoff=5.5 nneightol=1.2 pbc="T T T"
Si       0.09760727       0.20453888      -0.21652085       0.01465000       0.02809600      -0.02814400       1.99996000      -4.95678000     -14.82211000        0        0        0        4       0.71129367      -1.10151442     -10.53694521
Si      -0.18529390       1.73362280       0.43032597      -0.02781100       0.23813500       0.05593500      -3.45636000      10.51684000      14.92051000        0        0        0        4      -1.98731770       5.80298417      12.66565772
Si      -0.18982448       3.09392720      -0.77240184      -0.02849100       0.42499000      -0.10039900       0.08030000       9.03767000      -6.50123000        0        0        0        5      -0.00978734       3.73169054      -7.88017972
Si       0.27751112       5.93303256       0.55858903       0.04165200       0.81497700       0.07260700       1.37610000     -14.59774000       6.40283000        0       -1        0        5       1.28581137      -8.43316030       5.75146720
4
Lattice="6.662612 0.0 0.0 0.0 7.28 0.0 0.0 0.0 7.693322" Properties=species:S:1:pos:R:3:frac_pos:R:3:dft_force:R:3:map_shift:I:3:n_neighb:I:1:gap_force:R:3 config_type=sp dft_energy=-637.53688308 gap_energy=-633.37741999 gap_virial="1.38306129 1.48352562 -3.75405365 1.48352562 32.0288735 -3.6830763 -3.75405365 -3.6830763 16.1738537" cutoff=5.5 nneightol=1.2 pbc="T T T"
Si       0.24344518       0.21467264      -0.39453663       0.03653900       0.02948800      -0.05128300       6.62608000       8.16600000     -15.32485000        0        0        0        4       4.23918576       3.85182314     -12.02200985
Si      -0.06265520       1.64328528       0.63443749      -0.00940400       0.22572600       0.08246600      -2.16645000       3.40910000      12.93231000        0        0        0        4      -2.19071992       2.31362338      12.84961958
Si      -0.07985140       3.11450048      -0.46526903      -0.01198500       0.42781600      -0.06047700      -0.14476000       8.89747000      -5.09912000        0        0        0        5       0.33303411       3.24590825      -5.01705808
Si      -0.10093857       5.99267032       0.22536817      -0.01515000       0.82316900       0.02929400      -4.31487000     -20.47257000       7.49166000        0       -1        0        5      -2.38149995      -9.41135478       4.18944835
4
Lattice="6.662612 0.0 0.0 0.0 7.28 0.0 0.0 0.0 7.693322" Properties=species:S:1:pos:R:3:frac_pos:R:3:dft_force:R:3:map_shift:I:3:n_neighb:I:1:gap_force:R:3 config_type=sp dft_energy=-638.73170876 gap_energy=-634.16673886 gap_virial="9.33784327 2.96881596 -9.84827506 2.96881596 28.16869984 -2.09280447 -9.84827506 -2.09280447 10.45431228" cutoff=5.5 nneightol=1.2 pbc="T T T"
Si       0.39943691       0.22019088      -0.41747812       0.05995200       0.03024600      -0.05426500       9.93435000      -2.46631000     -10.29667000        0        0        0        4       9.88293807      -1.65944430     -10.10984547
Si      -0.31128390       1.61342272       0.41653184      -0.04672100       0.22162400       0.05414200     -10.13806000      -0.62127000      11.62984000        0        0        0        4      -9.49214398      -0.34967846      10.45077659
Si       0.29306831       3.12751712      -0.24607090       0.04398700       0.42960400      -0.03198500       4.39501000      12.94160000      -4.87766000        0        0        0        5       3.39097956       6.36036828      -3.98469914
Si      -0.38122133       6.00399800       0.24701718      -0.05721800       0.82472500       0.03210800      -4.19130000      -9.85402000       3.54449000        0       -1        0        5      -3.78177365      -4.35124553       3.64376802
4
Lattice="6.662612 0.0 0.0 0.0 7.28 0.0 0.0 0.0 7.693322" Properties=species:S:1:pos:R:3:frac_pos:R:3:dft_force:R:3:map_shift:I:3:n_neighb:I:1:gap_force:R:3 config_type=sp dft_energy=-639.76015526 gap_energy=-634.82004383 gap_virial="12.30586589 4.31467445 -8.99227193 4.31467445 25.74860012 -3.79311462 -8.99227193 -3.79311462 6.69500535" cutoff=5.5 nneightol=1.2 pbc="T T T"
Si       0.50583217       0.18948384      -0.28385281       0.07592100       0.02602800      -0.03689600      10.61818000       2.68279000      -6.95775000        0        0        0        4      10.95459766       1.76350303      -7.55173974
Si      -0.44251070       1.63817472       0.36003208      -0.06641700       0.22502400       0.04679800      -9.16731000      -1.59429000       7.52657000        0        0        0        4      -9.97310118      -1.41782365       7.91986050
Si       0.23608299       3.16339296      -0.30688661       0.03543400       0.43453200      -0.03989000       3.88886000      11.04529000      -3.90746000        0        0        0        5       3.84249822       5.02670567      -3.32025150
Si      -0.29940446       5.97406992       0.23070734      -0.04493800       0.82061400       0.02998800      -5.33973000     -12.13379000       3.33864000        0       -1        0        5      -4.82399470      -5.37238505       2.95213074
4
Lattice="6.662612 0.0 0.0 0.0 7.28 0.0 0.0 0.0 7.693322" Properties=species:S:1:pos:R:3:frac_pos:R:3:dft_force:R:3:map_shift:I:3:n_neighb:I:1:gap_force:R:3 config_type=sp dft_energy=-638.94241731 gap_energy=-633.84040318 gap_virial="11.9588112 5.62344117 -7.652623 5.62344117 29.36594764 -2.04446766 -7.652623 -2.04446766 5.35432088" cutoff=5.5 nneightol=1.2 pbc="T T T"
Si       0.42653376       0.18161416      -0.20896601       0.06401900       0.02494700      -0.02716200      11.76034000       4.87087000      -5.53679000        0        0        0        4      10.50992116       3.38799540      -5.60851727
Si      -0.41987781       1.68712544       0.41964764      -0.06302000       0.23174800       0.05454700      -9.72893000      -1.03881000       7.77902000        0        0        0        4     -10.29813918      -0.43889142       7.65632890
Si       0.35561025       3.15524664      -0.23713896       0.05337400       0.43341300      -0.03082400       4.55240000      11.44327000      -4.18783000        0        0        0        5       4.28387563       4.07549975      -3.88302384
Si      -0.36226620       5.94113520       0.02645733      -0.05437300       0.81609000       0.00343900      -6.58381000     -15.27534000       1.94560000        0       -1        0        5      -4.49565761      -7.02460372       1.83521221
4