12
Lattice="5.76291332 -0.00267754 -0.03571738 -0.01030033 5.76785846 0.1696898 0.00286954 0.2228287 6.8216516" Properties=species:S:1:pos:R:3:dft_force:R:3 config_type=st12 Minim_Constant_Volume=T dft_virial="2.36188027 -0.2354528 2.81293468 -0.2354528 -3.21098617 -8.39492079 2.81293468 -8.39492079 2.99975633" dft_energy=-1953.75292841 cutoff=-1.0 nneightol=1.2 pbc="T T T"
Si       0.50635986       0.44286322       0.06476802      -0.42902000      -1.60099000      -1.26483000
Si      -0.30438505      -0.48010528       3.39264278      -3.37948000       1.13472000      -1.25653000
Si       2.53908422       3.37128397       5.07713817      -1.92795000      -2.21720000       1.36554000
Si       3.34879572       2.33481994       1.66145418      -1.88889000       0.52671000      -1.26468000
Si       0.74903270       3.58494343      -0.23968625      -0.16462000       0.53443000       1.36663000
Si       0.88219906       2.01172968       1.67225623       0.83759000       1.03383000      -0.03855000
Si       1.80862967       4.80963648       3.62981644       2.18241000       1.77646000      -2.18672000
Si       2.09043690       0.94517608       5.04880006       0.32655000       0.49129000       0.65494000
Si       3.50825052       4.74837151       1.66012086       0.11685000      -0.87112000       2.37733000
Si       3.81384387       0.66477507       0.03802102       0.25470000       0.52278000      -1.37518000
Si       4.67710410       3.74791627       5.05554235       2.29574000      -0.48984000      -0.30692000
Si       4.84509049       1.98168433       3.22677989       1.77614000      -0.84108000       1.92896000
12
Lattice="5.66783871 -0.01897137 -0.14164768 -0.02362945 5.54943383 -0.01743206 0.44992873 -0.09614583 6.93604539" Properties=species:S:1:pos:R:3:dft_force:R:3 config_type=st12 Minim_Constant_Volume=T dft_virial="7.87731664 0.65636361 -2.66138608 0.65636361 5.17665629 -0.15840631 -2.66138608 -0.15840631 8.23638885" dft_energy=-1953.12197974 cutoff=-1.0 nneightol=1.2 pbc="T T T"
Si       0.50636157       0.44286050       0.06477059      -0.43079000      -0.96263000      -0.44193000
Si      -0.30438807      -0.48010529       3.39264186      -2.80150000       1.15776000      -0.18388000
Si       2.53908321       3.37128225       5.07713761       0.51210000      -2.95051000      -0.90699000
Si       3.34879896       2.33482015       1.66145472      -1.88932000       0.63408000      -1.39214000
Si       0.74903441       3.58494448      -0.23968300      -3.19093000       0.90392000       2.85840000
Si       0.88219654       2.01173241       1.67226007       0.84603000       1.04167000      -0.03730000
Si       1.80862578       4.80963617       3.62981376       2.10020000       0.24861000      -3.36916000
Si       2.09043545       0.94517681       5.04880011       1.18742000       1.66694000       1.66406000
Si       3.50825309       4.74836810       1.66011947      -0.41284000      -1.65949000       1.88232000
Si       3.81383969       0.66477321       0.03802169      -0.72891000       1.20877000      -1.82957000
Si       4.67710732       3.74791806       5.05554031       3.18732000      -0.56237000       0.01677000
Si       4.84509345       1.98168550       3.22677583       1.62120000      -0.72675000       1.73942000
12
Lattice="5.72122356 -0.05674237 0.12022192 -0.0909681 5.74727747 -0.02948175 0.0777313 0.10765047 7.03614344" Properties=species:S:1:pos:R:3:dft_force:R:3 config_type=st12 Minim_Constant_Volume=T dft_virial="1.5702903 2.03121854 -0.88725262 2.03121854 -3.61350782 -3.36336709 -0.88725262 -3.36336709 -1.95157956" dft_energy=-1953.65278821 cutoff=-1.0 nneightol=1.2 pbc="T T T"
Si       0.50636150       0.44286162       0.06477170      -0.03247000      -1.51619000      -1.75199000
Si      -0.30438856      -0.48010224       3.39264537      -1.70837000       1.41053000      -1.47856000
Si       2.53908289       3.37128391       5.07713743      -2.11321000      -2.29512000       1.96537000
Si       3.34879676       2.33482075       1.66145412      -1.90099000       0.48192000      -1.40698000
Si       0.74903294       3.58494167      -0.23968802      -0.54608000       0.99029000      -0.34958000
Si       0.88220003       2.01172904       1.67225581       1.56913000       0.94598000      -0.79298000
Si       1.80862643       4.80963390       3.62981471       0.95758000       1.51904000      -2.70444000
Si       2.09043579       0.94517781       5.04880408       0.36143000       0.63473000       2.09825000
Si       3.50825300       4.74836903       1.66011877       0.03582000      -0.35798000       1.48186000
Si       3.81384450       0.66477303       0.03802164      -0.13419000       0.01773000      -0.89103000
Si       4.67710783       3.74791632       5.05553893       2.50997000      -1.05074000       0.96709000
Si       4.84509464       1.98168281       3.22677713       1.00137000      -0.78019000       2.86299000
12
Lattice="5.67646408 -0.0458062 -0.07402002 -0.01624345 5.60532657 0.00563518 -0.21609638 0.10484248 6.91622266" Properties=species:S:1:pos:R:3:dft_force:R:3 config_type=st12 Minim_Constant_Volume=T dft_virial="7.20510472 0.63659098 9.10280698 0.63659098 2.17445193 -3.91449399 9.10280698 -3.91449399 4.58291054" dft_energy=-1953.76020813 cutoff=-1.0 nneightol=1.2 pbc="T T T"
Si       0.50636183       0.44286511       0.06476701       0.43638000      -1.07049000      -1.38186000
Si      -0.30438608      -0.48010581       3.39263942      -3.04877000       1.56970000      -0.99073000
Si       2.53908412       3.37128469       5.07713471      -2.57932000      -2.31873000       1.86393000
Si       3.34879795       2.33481871       1.66145444      -1.92735000       0.67828000      -1.35476000
Si       0.74903309       3.58494681      -0.23968593       2.08066000       0.33685000       1.77372000
Si       0.88219691       2.01173007       1.67225631       1.13829000       1.00268000      -0.23867000
Si       1.80862823       4.80963309       3.62981535       2.18041000       0.68226000      -2.88713000
Si       2.09043594       0.94517790       5.04880523      -0.27555000       1.39512000       2.01830000
Si       3.50824944       4.74836665       1.66012166      -0.09959000      -1.41424000       1.98666000
Si       3.81384057       0.66477677       0.03802122       0.05448000       0.75243000      -1.29352000
Si       4.67710416       3.74791860       5.05554040       0.63131000      -0.66787000      -1.48182000
Si       4.84509290       1.98168763       3.22677858       1.40904000      -0.94603000       1.98587000
12
Lattice="5.59498327 -0.13399683 -0.0104737 0.03298166 5.70798289 -0.10864939 -0.09020856 0.07250933 6.8465606" Properties=species:S:1:pos:R:3:dft_force:R:3 config_type=st12 Minim_Constant_Volume=T dft_virial="11.36588158 0.17372932 6.19706959 0.17372932 -1.94377496 -0.68995224 6.19706959 -0.68995224 4.85368674" dft_energy=-1953.9073577 cutoff=-1.0 nneightol=1.2 pbc="T T T"
Si       0.50636231       0.44286117       0.06477088       0.73448000      -1.30538000      -1.16528000
Si      -0.30438967      -0.48010467       3.39263972      -3.08567000       1.50521000      -0.74640000
Si       2.53908315       3.37128556       5.07713582      -2.22240000      -2.32787000       1.64285000
Si       3.34879736       2.33481932       1.66145263      -1.94318000       0.54338000      -1.32492000
Si       0.74903298       3.58494472      -0.23968853       1.40462000       0.73525000       1.59486000
Si       0.88219829       2.01173096       1.67225729       1.75066000       1.00368000      -0.68646000
Si       1.80862780       4.80963386       3.62981284       2.48400000       0.81326000      -2.90408000
Si       2.09043452       0.94517850       5.04880389       0.03900000       0.98812000       1.79311000
Si       3.50825359       4.74836821       1.66012142      -0.11520000      -0.46067000       0.93352000
Si       3.81384228       0.66477128       0.03802629      -0.75058000      -0.06887000      -0.34258000
Si       4.67710614       3.74791923       5.05553877       0.95547000      -0.44863000      -1.33389000
Si       4.84509067       1.98168509       3.22677743       0.74878000      -0.97749000       2.53927000
12
Lattice="5.56600581 -0.09704629 0.03401546 -0.13578259 5.61908817 -0.12004067 0.06876482 0.13286843 6.67085321" Properties=species:S:1:pos:R:3:dft_force:R:3 config_type=st12 Minim_Constant_Volume=T dft_virial="14.85325915 3.15976764 0.34513165 3.15976764 3.82333461 -1.22092937 0.34513165 -1.22092937 15.08766132" dft_energy=-1953.71478843 cutoff=-1.0 nneightol=1.2 pbc="T T T"
Si       0.50636367       0.44286178       0.06477167       0.34295000      -1.33514000      -0.09198000
Si      -0.30438912      -0.48010227       3.39264194      -0.18694000       1.81173000      -0.89273000
Si       2.53908500       3.37128546       5.07713783      -0.84046000      -2.59037000       0.40549000
Si       3.34879463       2.33481949       1.66145419      -1.95709000       0.53197000      -1.22066000
Si       0.74903616       3.58494656      -0.23968721      -0.15036000       0.69260000       2.97419000
Si       0.88219776       2.01173246       1.67226146       2.09891000       1.04329000      -1.07149000
Si       1.80862876       4.80963124       3.62981667       0.60131000       0.29839000      -4.09690000
Si       2.09043418       0.94517889       5.04880452       1.05460000       2.18759000       1.15678000
Si       3.50825038       4.74837039       1.66011897      -0.86963000      -0.96256000       0.90266000
Si       3.81384114       0.66477345       0.03802342      -0.95543000       0.25584000      -0.37258000
Si       4.67710531       3.74791776       5.05553997       0.55660000      -1.06869000      -0.64436000
Si       4.84509165       1.98168250       3.22677482       0.30556000      -0.86464000       2.95160000
12
Lattice="5.64440212 -0.11362341 0.00452336 0.08024507 5.64619063 -0.01601051 -0.11711608 0.22216172 6.77115222" Properties=species:S:1:pos:R:3:dft_force:R:3 config_type=st12 Minim_Constant_Volume=T dft_virial="12.43028029 -0.14446402 6.39832503 -0.14446402 0.88011124 -5.05835208 6.39832503 -5.05835208 8.37946022" dft_energy=-1953.56416904 cutoff=-1.0 nneightol=1.2 pbc="T T T"
Si       0.50635885       0.44286433       0.06476959       0.27709000      -1.28363000      -1.07596000
Si      -0.30438935      -0.48010775       3.39264231      -4.75686000       2.14634000      -1.79130000
Si       2.53908043       3.37128298       5.07713664      -2.22141000      -2.25340000       1.41439000
Si       3.34879790       2.33482213       1.66145599      -1.94354000       0.62888000      -1.29734000
Si       0.74903295       3.58494590      -0.23968662       1.76957000       0.31657000       2.29522000
Si       0.88219891       2.01172799       1.67226232       1.52507000       1.05579000      -0.57843000
Si       1.80862652       4.80963399       3.62981296       3.93152000       0.64679000      -2.67909000
Si       2.09043543       0.94518018       5.04879900      -0.16981000       1.39835000       1.17181000
Si       3.50824924       4.74837139       1.66012268       0.13445000      -0.92385000       1.80582000
Si       3.81384350       0.66477232       0.03802177      -0.02548000       0.16990000      -0.51156000
Si       4.67710652       3.74792046       5.05553861       0.48206000      -0.82664000      -1.18039000
Si       4.84509224       1.98168559       3.22677979       0.99734000      -1.07511000       2.42684000
12
Lattice="5.69330071 -0.02825777 0.11044966 -0.13560331 5.54660181 -0.09200555 -0.2101918 -0.06878262 6.73862851" Properties=species:S:1:pos:R:3:dft_force:R:3 config_type=st12 Minim_Constant_Volume=T dft_virial="6.1555277 2.15907498 5.05831071 2.15907498 6.93416431 -0.16312781 5.05831071 -0.16312781 12.5010738" dft_energy=-1953.6050134 cutoff=-1.0 nneightol=1.2 pbc="T T T"
Si       0.50636371       0.44286353       0.06476967       0.41059000      -0.64004000      -1.01825000
Si      -0.30438952      -0.48010643       3.39264232      -0.89233000       2.11131000      -2.16222000
Si       2.53908229       3.37128586       5.07713578      -2.38895000      -2.49764000       1.56600000
Si       3.34879480       2.33481740       1.66145372      -1.85750000       0.63230000      -1.31571000
Si       0.74903336       3.58494610      -0.23968380       1.44059000       0.38707000       1.71543000
Si       0.88219591       2.01172842       1.67225761       1.59917000       1.01815000      -0.82145000
Si       1.80863077       4.80963395       3.62981532       0.57977000      -0.25895000      -4.25497000
Si       2.09043533       0.94517644       5.04879930      -0.45723000       2.25643000       1.96720000
Si       3.50825139       4.74837173       1.66012221      -0.27838000      -1.39244000       1.88900000
Si       3.81384199       0.66477596       0.03802625       0.64832000       0.71765000      -0.23144000
Si       4.67710833       3.74791935       5.05554120       0.44994000      -1.62018000      -0.11645000
Si       4.84509017       1.98168667       3.22677605       0.74602000      -0.71367000       2.78286000
12
Lattice="5.72759504 0.08572421 -0.11903731 0.01040934 5.64623073 0.18531241 0.02732504 0.17969985 6.9190742" Properties=species:S:1:pos:R:3:dft_force:R:3 config_type=st12 Minim_Constant_Volume=T dft_virial="4.36412544 -1.58767731 3.86821246 -1.58767731 1.83172646 -8.99429412 3.86821246 -8.99429412 1.76058232" dft_energy=-1953.73685254 cutoff=-1.0 nneightol=1.2 pbc="T T T"
Si       0.50636343       0.44286345       0.06476574      -0.12884000      -1.46390000      -1.47728000
Si      -0.30438725      -0.48010663       3.39264519      -4.01995000       0.87283000      -0.94689000
Si       2.53908470       3.37128487       5.07713935      -1.96718000      -2.32299000       1.55954000
Si       3.34879474       2.33482186       1.66145790      -1.93162000       0.65803000      -1.29641000
Si       0.74903487       3.58494602      -0.23968826      -0.00544000       0.33487000       1.11948000
Si       0.88219856       2.01172968       1.67226126       0.80951000       0.98649000       0.03196000
Si       1.80862767       4.80963164       3.62981446       2.85311000       1.36672000      -2.21045000
Si       2.09043503       0.94517708       5.04880501       0.31646000       0.77828000       1.32733000
Si       3.50825362       4.74837137       1.66011986      -0.06012000      -2.00977000       3.15075000
Si       3.81383915       0.66477385       0.03802311       0.04930000       1.68857000      -2.55625000
Si       4.67710876       3.74792010       5.05554058       2.35242000      -0.40674000      -0.42199000
Si       4.84509342       1.98168521       3.22677398       1.73237000      -0.48239000       1.72020000
12
Lattice="5.79309047 -0.05839876 0.20826204 -0.00982836 5.70729503 -0.02919804 -0.15601496 -0.05157448 6.65020771" Properties=species:S:1:pos:R:3:dft_force:R:3 config_type=st12 Minim_Constant_Volume=T dft_virial="4.73622237 0.67424423 1.63414679 0.67424423 -1.06649308 -2.10718078 1.63414679 -2.10718078 9.30638607" dft_energy=-1953.47604903 cutoff=-1.0 nneightol=1.2 pbc="T T T"
Si       0.50636317       0.44286285       0.06477148      -0.31239000      -1.17749000      -0.97710000
Si      -0.30438599      -0.48010744       3.39264400      -2.97076000       1.94689000      -2.27488000
Si       2.53908234       3.37128643       5.07713394      -1.97906000      -2.38286000       1.20706000
Si       3.34879412       2.33481934       1.66145720      -1.80217000       0.52427000      -1.29028000
Si       0.74903516       3.58494431      -0.23968720       0.16541000       0.94675000       1.42050000
Si       0.88219931       2.01172975       1.67225828       1.29073000       1.06756000      -0.64463000
Si       1.80862527       4.80963348       3.62981691       2.15376000       1.18824000      -2.89477000
Si       2.09043463       0.94517865       5.04880390      -0.53336000       0.61408000       0.11671000
Si       3.50825037       4.74837059       1.66012130       0.13841000      -0.56978000       1.76357000
Si       3.81384476       0.66477517       0.03802678       1.24216000       0.04655000       0.50040000
Si       4.67710418       3.74791858       5.05553798       1.53276000      -1.39587000       0.23372000
Si       4.84509456       1.98168396       3.22677554       1.07450000      -0.80834000       2.83970000
12
Lattice="5.63191147 -0.06314973 0.17199031 0.02079229 5.65817151 -0.24597139 -0.12525661 -0.06470071 6.64851403" Properties=species:S:1:pos:R:3:dft_force:R:3 config_type=st12 Minim_Constant_Volume=T dft_virial="12.64682781 -0.36558013 3.12721707 -0.36558013 2.33418202 4.05429809 3.12721707 4.05429809 12.02286093" dft_energy=-1953.38008495 cutoff=-1.0 nneightol=1.2 pbc="T T T"
Si       0.50635841       0.44286417       0.06477009       0.37981000      -0.95689000      -0.54758000
Si      -0.30438542      -0.48010305       3.39264107      -2.78847000       1.18128000      -1.23658000
Si       2.53908423       3.37128431       5.07713522      -1.77543000      -2.48650000       1.11781000
Si       3.34879535       2.33482124       1.66145787      -1.88646000       0.53167000      -1.28229000
Si       0.74903408       3.58494364      -0.23968424       0.97601000       0.77941000       2.06943000
Si       0.88219643       2.01172865       1.67226139       2.43222000       1.01545000      -1.38240000
Si       1.80862572       4.80963179       3.62981178       1.91007000      -0.22123000      -3.96041000
Si       2.09043680       0.94518060       5.04880072      -0.13583000       1.93130000       1.30926000
Si       3.50825283       4.74836829       1.66012521       0.03460000      -0.35993000       0.82506000
Si       3.81384355       0.66477222       0.03802300       0.16088000      -0.15881000       0.92234000
Si       4.67710507       3.74792029       5.05554077       0.83579000      -0.61160000      -1.35697000
Si       4.84509076       1.98168461       3.22677705      -0.14318000      -0.64415000       3.52234000
12
Lattice="5.42644843 -0.01357938 -0.02057993 -0.06324098 5.63048931 -0.03123603 -0.17713092 0.07224379 6.94623954" Properties=species:S:1:pos:R:3:dft_force:R:3 config_type=st12 Minim_Constant_Volume=T dft_virial="21.63667889 0.2965269 7.68040398 0.2965269 2.26450979 -2.92469765 7.68040398 -2.92469765 9.30528707" dft_energy=-1953.05720936 cutoff=-1.0 nneightol=1.2 pbc="T T T"
Si       0.50635867       0.44286465       0.06477165       3.30296000      -1.42050000      -1.53043000
Si      -0.30438902      -0.48010422       3.39264208      -0.77624000       1.70833000      -0.71181000
Si       2.53908513       3.37128571       5.07713659      -2.49790000      -2.33441000       2.02175000
Si       3.34879577       2.33482123       1.66145247      -2.16483000       0.69402000      -1.28885000
Si       0.74903332       3.58494478      -0.23968317       2.93466000       0.44953000       2.67879000
Si       0.88220020       2.01172796       1.67225885       3.04723000       0.89396000      -1.83828000
Si       1.80862854       4.80963321       3.62981652       1.30825000       0.72552000      -3.08935000
Si       2.09043242       0.94517801       5.04880054      -0.11427000       1.26955000       2.32230000
Si       3.50825009       4.74836718       1.66011948      -0.90982000      -1.27154000       1.10998000
Si       3.81384397       0.66477426       0.03802160      -2.98105000       0.89865000      -1.15953000
Si       4.67710829       3.74792045       5.05553598      -0.68981000      -0.97471000      -2.11315000
Si       4.84509088       1.98168489       3.22677680      -0.45918000      -0.63840000       3.59860000
12
Lattice="5.39442412 -0.06408214 0.1447944 0.02389539 5.60500076 -0.1029034 0.17759267 0.25234548 6.49632763" Properties=species:S:1:pos:R:3:dft_force:R:3 config_type=st12 Minim_Constant_Volume=T dft_virial="39.2829378 -0.8404518 -9.70372509 -0.8404518 6.72850622 -3.92851311 -9.70372509 -3.92851311 29.53150846" dft_energy=-1950.88854185 cutoff=-1.0 nneightol=1.2 pbc="T T T"
Si       0.50635979       0.44286467       0.06476620       0.48383000      -1.92157000       2.40779000
Si      -0.30438601      -0.48010750       3.39263891      -2.16907000       2.73063000      -2.91377000
Si       2.53908440       3.37128466       5.07713843       1.57775000      -3.23686000      -1.45026000
Si       3.34879476       2.33482208       1.66145308      -2.13682000       0.57581000      -1.06164000
Si       0.74903714       3.58494435      -0.23968292      -1.15400000       1.04179000       5.71883000
Si       0.88219773       2.01172877       1.67225954       4.94435000       0.95707000      -3.64427000
Si       1.80862915       4.80963309       3.62981351       2.77916000       0.20187000      -3.85383000
Si       2.09043681       0.94517794       5.04880350       3.22442000       2.52814000      -1.57417000
Si       3.50825027       4.74837168       1.66012336      -0.47458000      -0.82207000       1.50999000
Si       3.81384229       0.66477162       0.03802265      -3.34875000       0.51571000      -0.33082000
Si       4.67710648       3.74791939       5.05553669      -1.09477000      -1.90549000      -0.54146000
Si       4.84509330       1.98168560       3.22677980      -2.63152000      -0.66503000       5.73361000
12
Lattice="5.72591532 0.03433933 0.07972617 0.04282696 5.82469617 0.0850447 -0.05265327 0.10552237 6.90660128" Properties=species:S:1:pos:R:3:dft_force:R:3 config_type=st12 Minim_Constant_Volume=T dft_virial="4.11768086 -2.1542591 1.93819106 -2.1542591 -6.21654943 -4.66966993 1.93819106 -4.66966993 -0.66373035" dft_energy=-1953.66160314 cutoff=-1.0 nneightol=1.2 pbc="T T T"
Si       0.50636232       0.44286406       0.06477212      -0.02640000      -1.58805000      -1.64849000
Si      -0.30438749      -0.48010786       3.39264069      -3.89761000       0.74507000      -1.10460000
Si       2.53908103       3.37128389       5.07713408      -2.21933000      -2.20098000       1.81646000
Si       3.34879460       2.33481935       1.66145838      -1.93223000       0.50047000      -1.33165000
Si       0.74903549       3.58494546      -0.23968288       0.05552000       0.81055000       0.41846000
Si       0.88219655       2.01173077       1.67226231       1.37938000       0.97430000      -0.54779000
Si       1.80862559       4.80963634       3.62981169       2.70397000       1.64701000      -2.15968000
Si       2.09043450       0.94518004       5.04880220       0.05837000       0.07010000       1.21450000
Si       3.50825112       4.74836676       1.66012435       0.22532000      -0.11857000       1.71683000
Si       3.81384466       0.66477116       0.03802548      -0.01933000       0.03012000      -0.78527000
Si       4.67710763       3.74791772       5.05553694       2.48888000      -0.27353000      -0.16282000
Si       4.84509023       1.98168668       3.22677970       1.18346000      -0.59647000       2.57405000
12
Lattice="5.75831406 0.07184423 0.04133501 0.08205446 5.81416034 -0.071132 0.09432114 -0.09667361 6.7982233" Properties=species:S:1:pos:R:3:dft_force:R:3 config_type=st12 Minim_Constant_Volume=T dft_virial="4.50156168 -3.73091388 0.51369231 -3.73091388 -6.12930476 1.10326489 0.51369231 1.10326489 2.07102332" dft_energy=-1953.50451295 cutoff=-1.0 nneightol=1.2 pbc="T T T"
Si       0.50636182       0.44286239       0.06477141      -0.49203000      -1.44015000      -0.87764000
Si      -0.30438554      -0.48010573       3.39264525      -4.68016000       0.11635000      -0.55101000
Si       2.53908397       3.37128215       5.07713867      -1.09257000      -2.47138000       0.84223000
Si       3.34879518       2.33482278       1.66145568      -1.84733000       0.47313000      -1.33217000
Si       0.74903267       3.58494577      -0.23968541      -1.27987000       1.24279000       1.31268000
Si       0.88220026       2.01173054       1.67225800       0.95000000       1.01262000      -0.17753000
Si       1.80862669       4.80963602       3.62981632       3.07322000       1.31246000      -2.39861000
Si       2.09043735       0.94517690       5.04879937       0.55134000      -0.13709000       0.95121000
Si       3.50824951       4.74837130       1.66012079       0.41319000       0.16721000       1.10477000
Si       3.81384413       0.66477485       0.03802400      -0.18898000      -0.08902000      -0.33685000
Si       4.67710606       3.74791878       5.05553911       3.10002000       0.13090000      -0.79061000
Si       4.84509286       1.98168385       3.22677730       1.49317000      -0.31782000       2.25353000
12
Lattice="5.73530566 -0.04696258 -0.00821498 0.15811475 5.56146108 -0.04284812 0.20933886 0.07384975 6.52432086" Properties=species:S:1:pos:R:3:dft_force:R:3 config_type=st12 Minim_Constant_Volume=T dft_virial="20.25694752 -2.41384455 -4.98646717 -2.41384455 5.43869563 -2.01732362 -4.98646717 -2.01732362 18.43307154" dft_energy=-1951.65273719 cutoff=-1.0 nneightol=1.2 pbc="T T T"
Si       0.50635813       0.44286277       0.06476891      -2.54142000      -1.33475000       2.11829000
Si      -0.30438911      -0.48010409       3.39264372      -7.55452000       1.73060000      -1.67916000
Si       2.53908035       3.37128338       5.07713801       2.44319000      -3.32561000      -2.29721000
Si       3.34879460       2.33482218       1.66145371      -1.81772000       0.62762000      -1.20496000
Si       0.74903359       3.58494564      -0.23968434      -4.23516000       0.87320000       4.97503000
Si       0.88219654       2.01172881       1.67225645       0.75074000       1.13239000      -0.02238000
Si       1.80862524       4.80963351       3.62981243       6.02410000      -0.07819000      -2.90843000
Si       2.09043416       0.94517825       5.04880270       2.74071000       2.28802000      -1.38597000
Si       3.50825433       4.74837113       1.66011896       0.22321000      -1.09549000       1.87054000
Si       3.81384432       0.66477539       0.03802601       0.00803000       0.48450000      -0.78296000
Si       4.67710730       3.74791832       5.05553877       2.38972000      -0.44486000      -0.65648000
Si       4.84509055       1.98168238       3.22677617       1.56911000      -0.85743000       1.97371000
12
Lattice="5.5852831 -0.04587403 0.0249369 -0.03320102 5.75307877 0.06304907 0.13981708 0.06806588 6.95393942" Properties=species:S:1:pos:R:3:dft_force:R:3 config_type=st12 Minim_Constant_Volume=T dft_virial="9.73814522 0.64619658 -1.33159136 0.64619658 -3.08980356 -4.89065233 -1.33159136 -4.89065233 1.89063946" dft_energy=-1953.88235459 cutoff=-1.0 nneightol=1.2 pbc="T T T"
Si       0.50636211       0.44286094       0.06476647       0.72912000      -1.58385000      -1.48959000
Si      -0.30438640      -0.48010577       3.39264501      -2.13389000       1.56167000      -1.56069000
Si       2.53908189       3.37128693       5.07713326      -1.61889000      -2.38324000       1.49752000
Si       3.34879934       2.33481791       1.66145294      -2.00911000       0.52057000      -1.29632000
Si       0.74903291       3.58494601      -0.23968814      -0.65655000       1.01229000       0.62218000
Si       0.88219976       2.01172820       1.67226069       2.07236000       0.96310000      -1.04716000
Si       1.80862659       4.80963637       3.62981383       1.74154000       1.65104000      -2.42249000
Si       2.09043291       0.94518001       5.04879927       0.58178000       0.27451000       1.50111000
Si       3.50825119       4.74836692       1.66012518      -0.10859000      -0.60752000       1.84195000
Si       3.81384312       0.66477134       0.03802371      -1.22292000       0.46317000      -1.27055000
Si       4.67710367       3.74791812       5.05553745       2.11121000      -1.12041000       0.69394000
Si       4.84509519       1.98168432       3.22677427       0.51395000      -0.75133000       2.93011000
12
Lattice="5.64929157 0.19085088 0.12920376 0.05247474 5.61053507 0.13223389 -0.09578639 -0.13641158 6.80928769" Properties=species:S:1:pos:R:3:dft_force:R:3 config_type=st12 Minim_Constant_Volume=T dft_virial="12.51907287 -3.8575945 0.74563973 -3.8575945 4.49496612 -5.1853303 0.74563973 -5.1853303 6.68616354" dft_energy=-1953.39635902 cutoff=-1.0 nneightol=1.2 pbc="T T T"
Si       0.50636249       0.44286398       0.06476617       0.60110000      -1.11791000      -1.48108000
Si      -0.30438722      -0.48010421       3.39264179      -4.17778000       0.94103000      -1.90227000
Si       2.53908031       3.37128688       5.07713634      -1.96584000      -2.52967000       1.54059000
Si       3.34879715       2.33481791       1.66145577      -2.01907000       0.70639000      -1.24442000
Si       0.74903425       3.58494274      -0.23968744       0.60998000       0.67125000       1.25134000
Si       0.88219842       2.01173218       1.67226215       2.01449000       1.03568000      -1.13258000
Si       1.80862746       4.80963207       3.62981386       3.74357000       0.98512000      -2.40303000
Si       2.09043768       0.94517986       5.04880040      -0.08452000       0.29446000       1.11424000
Si       3.50825169       4.74836832       1.66012021      -0.19354000      -1.84367000       3.11358000
Si       3.81384310       0.66477239       0.03802641      -0.14362000       1.90006000      -1.88363000
Si       4.67710385       3.74791704       5.05554160       1.40185000      -1.26053000      -0.01213000
Si       4.84509277       1.98168406       3.22677965       0.21338000       0.21779000       3.03938000
12
Lattice="5.75613693 0.12422424 -0.09595702 0.13568963 5.7538248 -0.16558589 -0.02113758 -0.0755993 6.92194242" Properties=species:S:1:pos:R:3:dft_force:R:3 config_type=st12 Minim_Constant_Volume=T dft_virial="4.23759662 -5.49867651 6.91644408 -5.49867651 -3.53802983 2.76177688 6.91644408 2.76177688 -1.88780913" dft_energy=-1953.26637235 cutoff=-1.0 nneightol=1.2 pbc="T T T"
Si       0.50636136       0.44286386       0.06476794      -0.21170000      -1.32179000      -1.10003000