108
Lattice="11.56119689 0.0 0.0 0.0 16.35000126 0.0 0.0 0.0 26.56119805" Properties=species:S:1:pos:R:3:dft_force:R:3 config_type=surface_110 dft_energy=-17579.891185 cutoff_factor=1.2 cutoff=-1.0 nneightol=1.2 pbc="T T T"
Si       0.00000000       0.00000000       0.00000000       0.00002000      -0.50937000       0.20595000
Si       1.92686615       2.72500021       1.92686615       0.00002000      -0.10653000      -0.27089000
Si      -1.92686615      -1.36250011       0.00000000       0.00000000       0.50941000       0.20607000
Si       0.00000000       1.36250011       1.92686615      -0.00001000       0.10650000      -0.27087000
Si       0.00000000       0.00000000       3.85373230       0.00000000      -0.13251000      -0.00698000
Si       1.92686615       2.72500021       5.78059845       0.00000000      -0.13234000       0.00662000
Si      -1.92686615      -1.36250011       3.85373230      -0.00001000       0.13248000      -0.00696000
Si       0.00000000       1.36250011       5.78059845       0.00000000       0.13235000       0.00659000
Si       0.00000000       0.00000000       7.70746460      -0.00001000      -0.10614000       0.27060000
Si       1.92686615       2.72500021       9.63433074       0.00001000      -0.50774000      -0.20484000
Si      -1.92686615      -1.36250011       7.70746460       0.00001000       0.10612000       0.27054000
Si       0.00000000       1.36250011       9.63433074       0.00001000       0.50804000      -0.20531000
Si       0.00000000       5.45000042       0.00000000       0.00001000      -0.50911000       0.20561000
Si       1.92686615       8.17500063       1.92686615      -0.00001000      -0.10653000      -0.27088000
Si      -1.92686615       4.08750032       0.00000000       0.00002000       0.50937000       0.20601000
Si       0.00000000       6.81250053       1.92686615      -0.00001000       0.10647000      -0.27087000
Si       0.00000000       5.45000042       3.85373230       0.00000000      -0.13247000      -0.00699000
Si       1.92686615       8.17500063       5.78059845       0.00000000      -0.13236000       0.00662000
Si      -1.92686615       4.08750032       3.85373230       0.00000000       0.13248000      -0.00698000
Si       0.00000000       6.81250053       5.78059845       0.00000000       0.13232000       0.00659000
Si       0.00000000       5.45000042       7.70746460       0.00001000      -0.10611000       0.27059000
Si       1.92686615       8.17500063       9.63433074       0.00000000      -0.50791000      -0.20507000
Si      -1.92686615       4.08750032       7.70746460       0.00002000       0.10611000       0.27054000
Si       0.00000000       6.81250053       9.63433074       0.00000000       0.50788000      -0.20512000
Si       0.00000000      10.90000084       0.00000000       0.00001000      -0.50931000       0.20587000
Si       1.92686615      13.62500105       1.92686615      -0.00001000      -0.10654000      -0.27088000
Si      -1.92686615       9.53750074       0.00000000      -0.00001000       0.50922000       0.20583000
Si       0.00000000      12.26250095       1.92686615       0.00000000       0.10650000      -0.27087000
Si       0.00000000      10.90000084       3.85373230       0.00000000      -0.13250000      -0.00698000
Si       1.92686615      13.62500105       5.78059845       0.00001000      -0.13236000       0.00660000
Si      -1.92686615       9.53750074       3.85373230       0.00000000       0.13245000      -0.00698000
Si       0.00000000      12.26250095       5.78059845       0.00000000       0.13233000       0.00659000
Si       0.00000000      10.90000084       7.70746460      -0.00001000      -0.10611000       0.27060000
Si       1.92686615      13.62500105       9.63433074      -0.00004000      -0.50791000      -0.20506000
Si      -1.92686615       9.53750074       7.70746460       0.00000000       0.10608000       0.27056000
Si       0.00000000      12.26250095       9.63433074       0.00002000       0.50795000      -0.20520000
Si       3.85373230       0.00000000       0.00000000      -0.00002000      -0.50933000       0.20589000
Si       5.78059845       2.72500021       1.92686615      -0.00001000      -0.10656000      -0.27086000
Si       1.92686615      -1.36250011       0.00000000      -0.00002000       0.50922000       0.20581000
Si       3.85373230       1.36250011       1.92686615       0.00000000       0.10651000      -0.27087000
Si       3.85373230       0.00000000       3.85373230       0.00000000      -0.13251000      -0.00697000
Si       5.78059845       2.72500021       5.78059845       0.00001000      -0.13239000       0.00660000
Si       1.92686615      -1.36250011       3.85373230       0.00000000       0.13245000      -0.00697000
Si       3.85373230       1.36250011       5.78059845       0.00000000       0.13233000       0.00660000
Si       3.85373230       0.00000000       7.70746460       0.00001000      -0.10613000       0.27059000
Si       5.78059845       2.72500021       9.63433074       0.00002000      -0.50814000      -0.20535000
Si       1.92686615      -1.36250011       7.70746460       0.00001000       0.10608000       0.27054000
Si       3.85373230       1.36250011       9.63433074      -0.00004000       0.50789000      -0.20511000
Si       3.85373230       5.45000042       0.00000000       0.00000000      -0.50939000       0.20597000
Si       5.78059845       8.17500063       1.92686615       0.00001000      -0.10660000      -0.27087000
Si       1.92686615       4.08750032       0.00000000      -0.00004000       0.50931000       0.20595000
Si       3.85373230       6.81250053       1.92686615       0.00000000       0.10655000      -0.27084000
Si       3.85373230       5.45000042       3.85373230       0.00000000      -0.13251000      -0.00699000
Si       5.78059845       8.17500063       5.78059845       0.00001000      -0.13240000       0.00660000
Si       1.92686615       4.08750032       3.85373230       0.00000000       0.13247000      -0.00695000
Si       3.85373230       6.81250053       5.78059845       0.00000000       0.13235000       0.00659000
Si       3.85373230       5.45000042       7.70746460       0.00000000      -0.10614000       0.27056000
Si       5.78059845       8.17500063       9.63433074       0.00000000      -0.50820000      -0.20543000
Si       1.92686615       4.08750032       7.70746460      -0.00002000       0.10607000       0.27057000
Si       3.85373230       6.81250053       9.63433074      -0.00002000       0.50813000      -0.20543000
Si       3.85373230      10.90000084       0.00000000      -0.00005000      -0.50940000       0.20596000
Si       5.78059845      13.62500105       1.92686615       0.00001000      -0.10656000      -0.27087000
Si       1.92686615       9.53750074       0.00000000       0.00002000       0.50940000       0.20606000
Si       3.85373230      12.26250095       1.92686615       0.00002000       0.10651000      -0.27084000
Si       3.85373230      10.90000084       3.85373230       0.00000000      -0.13251000      -0.00699000
Si       5.78059845      13.62500105       5.78059845       0.00001000      -0.13236000       0.00661000
Si       1.92686615       9.53750074       3.85373230       0.00000000       0.13247000      -0.00696000
Si       3.85373230      12.26250095       5.78059845       0.00000000       0.13237000       0.00659000
Si       3.85373230      10.90000084       7.70746460      -0.00001000      -0.10619000       0.27057000
Si       5.78059845      13.62500105       9.63433074       0.00002000      -0.50790000      -0.20502000
Si       1.92686615       9.53750074       7.70746460       0.00000000       0.10610000       0.27055000
Si       3.85373230      12.26250095       9.63433074       0.00000000       0.50821000      -0.20554000
Si       7.70746460       0.00000000       0.00000000       0.00000000      -0.50925000       0.20578000
Si       9.63433074       2.72500021       1.92686615       0.00000000      -0.10656000      -0.27089000
Si       5.78059845      -1.36250011       0.00000000       0.00002000       0.50929000       0.20590000
Si       7.70746460       1.36250011       1.92686615       0.00001000       0.10652000      -0.27085000
Si       7.70746460       0.00000000       3.85373230      -0.00001000      -0.13250000      -0.00699000
Si       9.63433074       2.72500021       5.78059845       0.00000000      -0.13238000       0.00660000
Si       5.78059845      -1.36250011       3.85373230       0.00001000       0.13247000      -0.00697000
Si       7.70746460       1.36250011       5.78059845      -0.00001000       0.13235000       0.00657000
Si       7.70746460       0.00000000       7.70746460       0.00000000      -0.10615000       0.27055000
Si       9.63433074       2.72500021       9.63433074      -0.00002000      -0.50810000      -0.20531000
Si       5.78059845      -1.36250011       7.70746460      -0.00002000       0.10610000       0.27051000
Si       7.70746460       1.36250011       9.63433074       0.00002000       0.50812000      -0.20539000
Si       7.70746460       5.45000042       0.00000000      -0.00002000      -0.50936000       0.20592000
Si       9.63433074       8.17500063       1.92686615       0.00001000      -0.10652000      -0.27091000
Si       5.78059845       4.08750032       0.00000000       0.00002000       0.50941000       0.20605000
Si       7.70746460       6.81250053       1.92686615       0.00001000       0.10653000      -0.27084000
Si       7.70746460       5.45000042       3.85373230       0.00000000      -0.13251000      -0.00698000
Si       9.63433074       8.17500063       5.78059845       0.00000000      -0.13236000       0.00661000
Si       5.78059845       4.08750032       3.85373230       0.00001000       0.13249000      -0.00697000
Si       7.70746460       6.81250053       5.78059845       0.00000000       0.13235000       0.00659000
Si       7.70746460       5.45000042       7.70746460      -0.00001000      -0.10617000       0.27055000
Si       9.63433074       8.17500063       9.63433074       0.00001000      -0.50791000      -0.20507000
Si       5.78059845       4.08750032       7.70746460       0.00000000       0.10616000       0.27053000
Si       7.70746460       6.81250053       9.63433074       0.00001000       0.50809000      -0.20538000
Si       7.70746460      10.90000084       0.00000000       0.00003000      -0.50917000       0.20567000
Si       9.63433074      13.62500105       1.92686615       0.00001000      -0.10655000      -0.27088000
Si       5.78059845       9.53750074       0.00000000       0.00000000       0.50955000       0.20626000
Si       7.70746460      12.26250095       1.92686615      -0.00002000       0.10649000      -0.27086000
Si       7.70746460      10.90000084       3.85373230      -0.00001000      -0.13249000      -0.00699000
Si       9.63433074      13.62500105       5.78059845       0.00000000      -0.13237000       0.00661000
Si       5.78059845       9.53750074       3.85373230       0.00001000       0.13250000      -0.00697000
Si       7.70746460      12.26250095       5.78059845      -0.00001000       0.13235000       0.00658000
Si       7.70746460      10.90000084       7.70746460       0.00001000      -0.10616000       0.27057000
Si       9.63433074      13.62500105       9.63433074       0.00002000      -0.50794000      -0.20510000
Si       5.78059845       9.53750074       7.70746460       0.00001000       0.10615000       0.27052000
Si       7.70746460      12.26250095       9.63433074      -0.00002000       0.50808000      -0.20537000
108
Lattice="11.56119689 0.0 0.0 0.0 16.35000126 0.0 0.0 0.0 26.56119805" Properties=species:S:1:pos:R:3:dft_force:R:3 config_type=surface_110 dft_energy=-17577.076337 cutoff_factor=1.2 cutoff=-1.0 nneightol=1.2 pbc="T T T"
Si       0.07080209      -0.10007294       0.07957809       0.46255000      -0.89170000       0.15589000
Si       2.01936599       2.77309659       1.97681352      -0.69424000      -0.79373000      -0.37648000
Si      -1.93296404      -1.15507942      -0.19515114      -0.08154000      -0.55246000       0.53183000
Si       0.00957660       1.39044667       1.79099419       1.01235000       0.18948000       0.88348000
Si      -0.09991372       0.02929296       3.85753997       0.52820000      -0.55459000      -0.76030000
Si       1.87122510       2.76764850       5.75503693       0.24984000      -0.38661000       0.53742000
Si      -1.99194750      -1.39882849       3.76364842       0.30503000      -0.14908000       0.04634000
Si      -0.14792433       1.39812762       5.72125897       0.66252000       0.13525000       0.88942000
Si      -0.14806551      -0.01804296       7.81086734      -0.14079000      -0.06760000      -0.94789000
Si       2.01370070       2.71018105       9.54608049      -1.47642000       1.47028000      -0.22671000
Si      -1.89421990      -1.60136564       7.83406333      -0.40153000       0.39279000      -0.36342000
Si       0.07382720       1.52232950       9.43782133      -0.23530000       0.41823000       0.02501000
Si       0.13940169       5.25326744       0.29020943      -0.42485000       0.34790000       0.14849000
Si       1.95558043       8.31244338       1.81742790      -0.28063000       0.49858000       0.13411000
Si      -1.92131244       4.31933701       0.14337506      -0.04744000      -0.40681000       0.22174000
Si       0.06258724       6.93113434       1.84948374      -0.11145000       0.06874000       0.39229000
Si       0.11745733       5.52297857       3.85846241      -0.17334000       0.16617000      -0.18468000
Si       1.98300342       7.88236714       5.82338421      -0.04423000       1.15769000       0.07936000
Si      -1.81161294       4.16648167       3.75690523      -0.02000000      -0.86612000      -0.29802000
Si      -0.07495055       6.75885163       5.92382640       0.08158000      -0.02107000      -0.15910000
Si      -0.01322406       5.42650024       7.94381329      -0.08378000       0.51036000      -0.33040000
Si       2.07218591       7.99176669       9.61747235      -0.64292000       0.23277000       0.10078000
Si      -1.86997538       4.06811251       7.84476387      -0.99378000       0.32975000      -0.90622000
Si      -0.02384182       7.02944641       9.62803547       0.72079000      -0.29837000      -0.28286000
Si       0.13063992      10.67863044       0.40400904       0.35093000      -1.14039000      -0.85566000
Si       1.94857537      13.77550762       1.82868270      -0.70161000       0.00098000       0.52332000
Si      -1.78178428       9.51828786       0.14722690      -0.66355000      -0.00029000      -0.51498000
Si       0.04184419      12.30718212       1.80666229       0.54808000       1.58859000       1.24809000
Si       0.07285848      10.93034598       3.81017038      -0.35701000      -0.34318000      -0.18276000
Si       1.85305201      13.59283339       5.82708682      -0.15297000       0.43120000      -0.13018000
Si      -1.91535777       9.63170203       3.99973447      -0.30826000      -0.31076000      -1.28135000
Si      -0.07836702      12.23877823       5.73463525       0.56163000       0.18879000      -0.20760000
Si      -0.01884479      10.77346745       7.53329358       0.05938000      -1.72272000       0.09978000
Si       1.85268044      13.46010206       9.46518197       0.78727000       0.25809000      -0.12421000
Si      -2.02212540       9.51761112       7.89044242       0.14841000       0.84871000      -0.99378000
Si       0.02518139      12.16449164       9.25617870      -0.27926000       0.56003000       0.49735000
Si       3.83657090      -0.18727927      -0.09267571       0.13260000      -0.10952000       0.85610000
Si       5.75285910       2.78132317       1.84571075      -0.44001000      -0.10257000       0.22644000
Si       1.96966837      -1.53119681      -0.23448000      -0.63152000       0.29817000      -0.69277000
Si       3.85013832       1.33278044       1.73026618       0.28455000       0.14102000       0.39179000
Si       3.80359849       0.05438045       3.78221365       0.14687000      -0.17083000       0.18370000
Si       5.62629269       2.78283615       5.77487107       0.90105000      -0.17005000       0.65097000
Si       1.90781924      -1.36154490       3.87616028      -0.47540000       0.34097000      -0.08127000
Si       3.83810660       1.26605473       5.85438156      -0.86932000       0.85601000      -0.42133000
Si       3.72184922      -0.19825485       7.70037417       0.59058000       0.82765000       0.70244000
Si       5.71796634       2.54082369       9.53170487       0.38109000      -0.31250000       0.45656000
Si       1.73192944      -1.33067668       7.74070203       0.18185000      -0.60837000      -0.07272000
Si       3.72488999       1.44721882       9.44985409       1.60254000      -1.57690000      -0.73578000
Si       3.88411259       5.58416659      -0.05380068      -0.16827000       0.27694000       0.04475000
Si       5.78508456       8.25297981       1.94444054       0.04592000       0.11715000      -0.09166000
Si       2.09759118       4.16992319       0.15354481       0.14384000      -0.06110000      -0.23229000
Si       3.82603664       6.98349092       1.82049447       0.43263000      -0.50807000       0.11317000
Si       3.92270365       5.52734729       3.73021354       0.37376000       0.58643000       0.22058000
Si       5.76810844       8.23087850       5.95149007       0.24079000      -0.46301000      -0.30285000
Si       2.06539854       4.19791148       3.85284621      -0.61727000      -0.59257000       0.17633000
Si       3.98160047       6.66890040       5.83894602       0.00341000       0.67216000      -0.87941000
Si       3.89293572       5.39037808       7.71750851       0.98366000       0.00948000       1.06273000
Si       5.87413736       8.02181198       9.54146099       0.07049000      -0.24125000      -0.01078000
Si       1.94586470       4.26639150       7.71330921      -0.44018000      -1.49806000       0.13332000
Si       3.98591634       6.80778367       9.62919214      -0.12415000      -0.75278000      -0.11001000
Si       3.85994389      11.03081909       0.17299141       1.47276000      -0.83339000      -0.75095000
Si       5.77583061      13.73277097       1.92620057      -0.64953000      -0.38052000       0.56915000
Si       2.11467322       9.69747171      -0.10961133      -0.84620000      -0.97732000      -0.22539000
Si       3.74087651      12.36050996       1.91177213       1.11553000       0.82508000       1.19339000
Si       3.70591911      10.91936080       3.85630140       0.81287000       0.55614000       0.22701000
Si       5.82003167      13.58912205       5.82121858      -0.12455000       0.64423000       0.21712000
Si       1.93851106       9.47105633       3.94983621      -0.54665000      -0.58801000      -0.22532000
Si       3.82184387      12.35021714       5.79357590      -0.05059000      -0.72427000       0.53010000
Si       3.69992012      11.01595015       7.89203199      -0.07183000      -0.02883000      -0.09614000
Si       5.93755640      13.67767799       9.52116433       0.48541000      -0.17987000       0.46350000
Si       1.93578152       9.32879754       7.76805218      -0.27171000       1.13907000      -0.54451000
Si       3.98884155      12.62715943       9.66947518      -0.99025000      -1.10555000      -0.53637000
Si       7.57512733      -0.11669752      -0.00391443       0.06373000      -0.32200000       0.53660000
Si       9.68573110       2.63954143       1.73370683      -1.40121000       0.35611000       0.48783000
Si       5.72927066      -1.54679848      -0.10999810      -0.00380000       0.42616000      -0.69753000
Si       7.55037366       1.34387383       1.83023173       1.30578000       0.42253000      -0.25419000
Si       7.72245417       0.03387094       3.78647817      -0.53522000       0.18751000       1.00212000
Si       9.55702246       2.77451756       5.70363561      -0.27740000       0.35684000       0.70701000
Si       5.75295269      -1.27943899       3.93762237       0.27516000      -0.34161000      -0.44617000
Si       7.61728573       1.38905094       5.98252200       0.27707000      -0.14645000      -0.73966000
Si       7.78963613      -0.10466259       8.01867587       0.12951000      -0.16098000      -1.26033000
Si       9.71619130       2.74054542       9.67998920       0.12234000       0.09971000       0.61336000
Si       5.80225903      -1.26604275       7.76824277      -0.26339000      -0.27575000      -0.62456000
Si       7.79981744       1.55846318       9.52547690      -0.48100000       0.19430000      -0.05127000
Si       7.59665823       5.30745359      -0.00834637       0.58438000       0.48114000       0.05307000
Si       9.61817108       8.14825675       1.96725895      -0.11688000      -0.09731000       0.40868000
Si       5.66880584       4.19076140       0.00459015      -0.10230000      -0.49190000       0.11216000
Si       7.65778023       6.80687540       1.71420795       0.27661000       0.35890000       1.21381000
Si       7.84272425       5.48098254       3.90228070      -0.73827000       0.53866000      -0.77878000
Si       9.59216937       8.21729495       5.85277586       0.86492000       0.25566000       0.59587000
Si       5.82909235       4.20257740       3.83311357       0.27335000      -0.69721000      -0.21272000
Si       7.79936876       6.84136530       5.88564548      -1.32466000      -0.00696000      -0.65236000
Si       7.65127782       5.52157202       7.78716023       1.06411000      -1.29281000      -0.30266000
Si       9.57354317       8.08712661       9.60306561      -0.04126000      -0.02458000       0.45555000
Si       5.86403400       4.05819541       7.89585924      -0.82205000       0.39609000      -1.17970000
Si       7.75419465       6.74926289       9.63980396      -0.09886000       0.33009000       1.10671000
Si       7.69878266      10.55557265       0.07561364       0.20113000       0.31663000       0.95801000
Si       9.73792550      13.63991673       1.74739237      -1.41055000       0.43686000      -0.43230000
Si       5.71034638       9.44169377      -0.11324279      -0.64871000       0.25130000      -0.16929000
Si       7.62448863      12.30475308       1.67620712       0.88936000       0.09636000       0.21199000
Si       7.62589664      10.87143680       3.66633760       0.08029000       0.32099000       0.82734000
Si       9.57582072      13.53753393       5.75079834      -0.55004000       0.45665000       0.12485000
Si       5.64865459       9.55946650       3.97099889       0.47212000      -0.01789000      -0.55841000
Si       7.64816150      12.12265834       5.84403635       0.24586000      -0.04192000      -0.40446000
Si       7.54577505      10.81269387       7.92405055       0.20002000      -0.24830000      -0.71313000
Si       9.82410204      13.51564230       9.79108467       0.05520000       0.27130000       0.69790000
Si       5.54434763       9.56217578       7.91309141       0.46447000       0.68974000      -0.21059000
Si       7.85482293      12.40485831       9.52665514      -0.27824000       0.32805000      -0.22247000
108
Lattice="11.56119689 0.0 0.0 0.0 16.35000126 0.0 0.0 0.0 26.56119805" Properties=species:S:1:pos:R:3:dft_force:R:3 config_type=surface_110 dft_energy=-17577.740722 cutoff_factor=1.2 cutoff=-1.0 nneightol=1.2 pbc="T T T"
Si       0.09897581      -0.47996392       0.48303946       0.34970000       0.32309000      -0.14273000
Si       1.94815627       2.74859600       1.82350211       0.09474000       0.03044000       0.33860000
Si      -2.00512490      -1.08527527      -0.26611067      -0.34450000      -0.35053000      -0.40035000
Si       0.01119222       1.41664602       1.93165513       0.72625000      -0.38910000      -0.46561000
Si      -0.01506666       0.07899841       3.83137077      -0.65120000      -0.45409000       0.89937000
Si       1.73652454       2.72265943       5.86716749       0.59004000       0.01380000      -1.08877000
Si      -1.98894698      -1.40390519       3.66102934       0.25303000       0.21609000       0.57387000
Si      -0.15756792       1.38664997       5.98327955      -0.53049000       0.54149000      -1.79724000
Si      -0.18538504      -0.02115670       7.75427139       0.21174000      -1.65315000       0.55826000
Si       1.93709741       2.93173385       9.69202810       0.14636000      -0.73246000       0.55471000
Si      -1.99834687      -1.63793470       7.85001399       0.12855000       0.39959000       0.60225000
Si      -0.03225066       1.79047263       9.07999424       0.32595000       0.54413000       0.35466000
Si       0.10775496       5.42422217       0.66539878      -0.19668000       0.05829000      -0.06298000
Si       2.15051931       8.57265891       1.69645134      -0.31889000      -0.83483000       1.43555000
Si      -1.92975582       4.42113813       0.37797548      -0.70322000       0.58589000      -0.17542000
Si       0.15820612       7.19250786       2.13327121       1.35241000      -0.25096000      -0.51533000
Si       0.15013870       5.50172243       3.76068757      -0.57527000      -0.32383000       0.69398000
Si       2.07425095       8.11466181       5.85149738      -0.07895000      -1.18819000       0.01572000
Si      -1.91215064       4.11823401       3.59536691      -0.03062000       0.74972000       0.53552000
Si       0.04303413       6.70367161       5.93918267       0.48602000       0.27096000      -0.25971000
Si       0.00519500       5.30922534       7.93908010      -0.29565000       0.54241000      -0.51937000
Si       2.05846089       7.94942261       9.63273475       0.71616000      -1.05694000       0.72973000
Si      -1.98716197       4.10583367       7.63662031       0.54622000      -0.37325000       0.84376000
Si       0.04831684       6.93478806       9.59743411      -0.03593000       0.02282000      -0.57883000
Si       0.31042383      10.46936224       0.76729487      -0.32284000       0.11297000      -0.52022000
Si       1.93844052      13.96441794       1.70846373       0.13088000       0.20778000      -0.27693000
Si      -1.77904747       9.32706907       0.16786719       0.21393000       0.57007000       0.03832000
Si       0.01899062      12.61873783       1.86604956      -0.00677000      -1.37770000      -0.25094000
Si      -0.00397579      10.78231178       3.67472788      -0.51228000       0.64802000      -0.01966000
Si       1.77347826      13.60710008       5.82608029      -0.23152000      -0.36568000      -0.17105000
Si      -2.03931459       9.52158428       3.88828197       0.94993000      -0.42680000       0.25235000
Si      -0.10463056      12.04028105       5.76766145      -0.05678000       0.68740000      -0.08384000
Si      -0.04755859      10.36113181       7.53588766      -0.09598000       1.82498000       0.18099000
Si       1.97048203      13.35716575       9.27798930      -1.65845000       0.06934000      -0.06054000
Si      -2.08779051       9.47716112       7.93025650      -0.02532000      -1.22404000      -0.16058000
Si      -0.09479669      12.26102286       8.92992824       0.72900000      -0.13639000      -0.18249000
Si       3.73048714      -0.26504614       0.14045181      -0.19070000      -1.20498000      -0.25231000
Si       5.69715540       2.65927590       1.82140571      -0.23926000       0.63627000      -0.29751000
Si       1.88389495      -1.50805692      -0.83992147      -0.05036000       0.43668000       1.42061000
Si       3.82737813       1.26212770       1.84537789      -0.43143000       0.68788000      -0.00580000
Si       3.80886550       0.04125047       3.80330912       0.01543000      -0.89603000       1.37038000
Si       5.79384968       2.64975000       5.77673206      -0.63808000      -0.68903000      -0.67758000
Si       1.83963740      -1.35685600       3.85862158       0.45516000       0.51248000      -0.26845000
Si       3.64305140       1.37169800       5.84603284       1.28033000       0.21280000      -0.56120000
Si       3.88350382      -0.04367105       7.72723633      -1.03767000      -1.05669000      -0.85750000
Si       5.81763748       2.54787982       9.57682544      -0.58814000       0.90688000      -0.38673000
Si       1.81183417      -1.35387109       7.72439950       0.13520000       1.23321000      -0.12599000
Si       3.80018228       1.47032764       9.33356167      -0.38759000       1.20644000       0.41204000
Si       3.87210385       5.68983493      -0.27615405      -0.41653000      -0.08997000      -0.77126000
Si       5.85383955       8.40291120       1.82671754      -0.37000000       0.19812000       0.12635000
Si       2.01665449       4.34703976       0.10254637       0.12608000      -0.05023000       0.31128000
Si       3.93275272       6.88274256       1.67213328       0.12749000       0.43806000       0.87080000
Si       4.05129492       5.54519730       3.66973937      -1.14467000      -0.24580000       0.32558000
Si       5.91411397       8.24124251       5.75779068      -1.46402000       0.86849000       0.16394000
Si       2.02760756       4.10676886       3.85448654       0.36199000      -0.08779000      -0.29387000
Si       4.06592428       6.74210468       5.72700050      -0.47078000       0.18670000       0.33140000
Si       3.90140010       5.43600149       7.79952912      -0.11152000      -0.17269000      -1.32408000
Si       5.80393863       7.85240060       9.01136779       0.07061000      -1.09877000       0.76391000
Si       1.92583335       4.07257126       7.66308333       0.68538000       0.52860000       0.66937000
Si       3.97427414       6.50313470       9.81316533       0.10601000       0.83529000       0.46245000
Si       4.06644152      11.07791264       0.25682883      -0.74721000      -0.75867000       0.60940000
Si       5.84433544      13.84884966       2.07062365       0.97984000      -0.26339000      -1.12090000
Si       2.23807620       9.44451731      -0.44258522      -0.13548000       1.48453000       0.21739000