64
Lattice="11.106013 0.0 0.0 0.0 11.106013 0.0 0.0 0.0 11.106013" Properties=species:S:1:pos:R:3:map_shift:I:3:n_neighb:I:1:dft_force:R:3:gap_force:R:3 config_type=amorph dft_energy=-10418.559105 gap_energy=-10418.94088407 gap_virial="-3.28891482 3.71570349 1.35532088 3.71570349 -24.3905593 4.17201825 1.35532088 4.17201825 -6.97518331" cutoff=5.5 nneightol=1.2 pbc="T T T"
Si      -0.81711620      -3.03848553      -4.74404003        0        0        0       30       1.69049000      -0.81062000       0.15021000       1.77369136      -1.05879941       0.17050509
Si      -0.24089740       4.63152380       1.75264976        0        0        0       35       0.71069000       0.01326000      -0.11133000       0.45192752       0.06333207      -0.31342350
Si      -1.14409037      -5.23381705      -3.49194754        0        0        0       30      -0.19361000      -0.14236000      -1.18460000      -0.02020891       0.00363960      -1.21121576
Si       4.73029257       4.16228448       0.54915082        0        0        0       33       0.38028000       0.19036000       0.62555000       0.44103959       0.33944636       0.37273019
Si       1.21725492       3.09207968       0.66314865        0        0        0       30      -0.46042000      -1.46842000      -0.50154000      -0.24873145      -1.48164690      -0.31373669
Si       3.81257793      -3.47679510       0.55160622        0        0        0       33       1.52484000       0.17747000      -0.07619000       1.20869836       0.09673962      -0.13297877
Si       1.71912999       0.14420831       3.30420862        0        0        0       33      -0.95701000       0.03300000       0.29940000      -0.71805223       0.20779178       0.29645941
Si       4.96062020       2.64846675       4.51921514        0        0        0       30      -0.62799000       0.31080000       0.79457000      -0.46353400       0.34316110       0.95762208
Si      -1.14700372       2.51326266      -2.62225999        0        0        0       31      -1.46679000      -0.71770000      -0.83899000      -1.31856113      -0.80458746      -1.02265819
Si       2.03550479      -0.14010222      -4.06580650        0        0        0       31      -1.12385000      -0.24249000      -1.43102000      -0.92420361      -0.11848251      -1.22093064
Si       4.14081415      -5.21547606       2.10677555        0        0        0       32       1.79387000       0.22752000      -2.23087000       1.74250255       0.10955018      -2.32592262
Si       1.70358214      -2.48819053      -4.39700919        0        0        0       29      -0.43791000      -1.43704000      -0.32384000      -0.52820509      -1.46332514      -0.62281416
Si      -1.30952749      -1.51586888      -1.10184238        0        0        0       29      -1.78722000       0.10263000      -0.16287000      -1.74472119       0.04331489       0.14660372
Si       4.19423456      -0.57200209      -4.48188444        0        0        0       30       2.05024000      -0.49189000       0.34857000       2.28754916      -0.35293019       0.03068934
Si       5.44596630      -1.58240244      -2.61920528        0        0        0       32      -0.04986000      -0.44082000       0.55121000      -0.18046051      -0.48188863       0.65994585
Si      -1.77333049      -1.38393563      -3.47334595        0        0        0       34       0.85658000       0.66595000       0.39124000       0.87839239       0.91741609       0.50175707
Si       0.73379939      -5.51196147      -2.11177601        0        0        0       31      -1.10613000      -1.35340000       0.66537000      -1.08655875      -1.34061403       0.98157737
Si       0.89779635       3.10926716      -1.98932190        0        0        0       32       1.84547000      -0.07055000       0.79626000       1.48030821      -0.02747519       0.80778720
Si      -3.99339998      -4.86810344      -1.26397557        0        0        0       31      -1.24266000      -0.00788000      -0.21937000      -1.36728310      -0.09308456      -0.21988663
Si      -1.21192648       0.77843070      -4.39795032        0        0        0       31       0.67446000       0.30877000       0.43284000       0.73905830       0.12742610       0.58707693
Si      -0.55966251      -3.38102049       3.95995471        0        0        0       34       0.03134000       0.10442000      -0.02219000       0.15556857       0.06849296      -0.07435797
Si      -0.43591933       4.40369197      -5.32637383        0        0        0       30       0.72893000       0.10705000       0.08004000       0.46328885      -0.04174977      -0.06232379
Si      -2.91049975      -2.69013721       3.52081872        0        0        0       37       0.31000000       0.22751000      -0.56681000       0.50185934       0.59809518      -0.19957848
Si      -5.25498188       1.19112364      -4.77914160        0        0        0       32      -1.03054000       0.43829000      -0.36201000      -1.32683475       0.61899068      -0.39138503
Si       5.54033085      -0.61836420       3.21212069        0        0        0       30       0.19452000       1.07361000      -1.87925000      -0.01752471       0.96699875      -1.78333576
Si       2.91511876      -5.44533547       3.88217090        0        0        0       28      -0.82835000       0.65293000       2.28333000      -0.80553981       0.70902519       2.20070835
Si      -3.84194265      -1.97056943      -4.07437928        0        0        0       30      -0.90963000       0.38035000       0.77278000      -0.97687267       0.27818341       0.64602300
Si       3.74772472       1.20525469       2.90624327        0        0        0       35       1.70097000      -0.47802000       0.58905000       1.63088270      -0.41712747       0.67547062
Si       1.94700072       0.65570953      -1.96654457        0        0        0       32      -0.35468000       0.67281000       0.84240000      -0.22701974       0.68563206       0.87407806
Si      -3.48871093       4.72242474      -2.88938961        0        0        0       34       1.07499000       0.24304000      -1.99685000       1.12494696       0.38991122      -1.68288243
Si      -4.51541441      -3.29803266       5.30359546        0        0        0       33       1.42654000       0.20851000      -0.54928000       1.43290216       0.01694289      -0.70755093
Si       4.61179526       5.53391012      -3.72249880        0        0        0       32      -1.46210000      -0.43472000       0.47392000      -0.79744123      -0.53483941       0.31465057
Si      -5.10390107       2.73712275      -3.02761275        0        0        0       32       1.89153000      -0.16785000       0.95866000       0.89726858      -0.53489111       0.70987300
Si      -3.18573141       2.63763815      -1.40278655        0        0        0       35      -0.16911000      -1.12211000       0.14311000       0.02610340      -0.73365391       0.29337970
Si       0.84281484       1.27941392       5.29537229        0        0        0       32       0.07309000      -0.97633000       1.26617000      -0.16320875      -0.78464414       1.33738784
Si      -2.37725170       3.76013075       2.28030995        0        0        0       31       0.35987000      -1.60579000      -0.34697000      -0.02733372      -1.33627284      -0.39538904
Si       4.72235240      -4.06530943      -1.66172572        0        0        0       33      -0.38960000       1.49717000       0.04918000       0.32795615       1.33905681      -0.13591278
Si      -3.57669405      -3.50497309       1.14009887        0        0        0       32      -1.33081000       1.66449000       2.95292000      -1.35117842       1.53664685       2.77551696
Si       1.59114971      -3.00355933       0.52437082        0        0        0       33      -1.26868000       1.13945000      -0.24713000      -1.14461275       1.16144334      -0.42068111
Si       3.48714671       2.24605953       0.85924267        0        0        0       30      -0.41217000       0.28803000       0.00237000      -0.48292605       0.25787766       0.29017175
Si       4.78811758      -2.03444302       4.77740115        0        0        0       31      -0.73513000       0.47335000       0.87305000      -0.99750695       0.45184940       0.83337241
Si      -2.03504754       0.89725690       1.89814161        0        0        0       31       1.48441000       2.14610000      -0.40859000       1.48789605       2.26454509      -0.19183373
Si      -3.12448905       1.18002518       5.50475901        0        0        0       29       0.75359000       0.13416000      -0.62674000       0.69540191       0.23256866      -0.82853032
Si      -4.51555933      -5.36463598       2.20144712        0        0        0       31      -1.00128000      -0.09151000       1.24649000      -0.30889791      -0.35089802       0.99575512
Si      -5.47036295      -1.88279992       1.13758685        0        0        0       30      -0.58995000       0.03764000      -0.11023000      -0.40403236       0.00467463      -0.20865221
Si       1.68866784       3.13340924      -4.50974160        0        0        0       27      -2.36481000      -0.28104000       0.19206000      -1.95930002      -0.31646582       0.09251073
Si       1.30142647      -2.18267862       2.72182402        0        0        0       28      -0.23252000      -0.29080000       1.65644000      -0.27093863      -0.16243256       1.36967454
Si       0.00063412      -4.82566766       0.03882899        0        0        0       33       0.37560000       0.27157000       0.25382000       0.18619846       0.45920319       0.11440438
Si       3.42567604       4.26274504      -5.35246940        0        0        0       34       1.62897000      -0.16645000      -1.10797000       1.52702684      -0.08223649      -1.17715943
Si       2.76022978      -3.02222140       4.42280830        0        0        0       31      -0.89687000      -0.77463000       0.39944000      -0.83359801      -0.99119053       0.64137382
Si       0.39948065       0.81528865       1.49719171        0        0        0       26      -0.35026000       0.71478000      -0.97514000      -0.48029546       0.52225895      -1.03256284
Si      -2.35335797       3.34919695       4.78101843        0        0        0       32       0.24799000      -0.07748000      -0.76975000       0.13664969      -0.28815912      -0.42106833
Si      -2.93394099       0.23290608      -0.01500190        0        0        0       32      -0.28580000      -0.21041000      -2.48190000      -0.09436184      -0.14992028      -2.51154415
Si       4.07780302       1.36048526      -1.23388559        0        0        0       30      -0.17022000       0.15673000       0.31944000       0.05130079      -0.01188803       0.15275875
Si      -2.12036356      -3.92220783      -0.43830424        0        0        0       34       2.20984000       1.61539000      -1.07694000       2.41480008       1.76254583      -1.04321748
Si      -5.27719849      -0.12424448      -0.52292117        0        0        0       30       0.29910000      -1.30415000      -0.87105000       0.18891417      -1.24298396      -0.75103050
Si      -3.97299030       4.44085814       0.27754794        0        0        0       32       0.56635000      -1.30717000      -0.01322000      -0.00152422      -1.25364078       0.17814524
Si       0.64652830       5.40548486       3.78050276        0        0        0       33      -1.85480000       0.68115000       0.36880000      -1.79583536       0.71098951       0.40984840
Si      -4.38134315       4.37368311       4.26259028        0        0        0       31      -0.56164000      -0.27517000      -0.65610000      -0.51558598      -0.43709977      -0.63803407
Si      -4.43793540      -5.44211217      -4.97470348        0        0        0       34      -0.28372000       0.06992000       1.12024000      -0.48770909      -0.01831788       0.99773121
Si       0.78243966      -0.72086558      -0.42912419        0        0        0       32       0.41912000      -0.50966000       0.88282000       0.24032785      -0.39847523       0.96823845
Si      -3.21560803      -0.02439896       3.49472869        0        0        0       27      -1.25948000      -2.06163000       1.48369000      -1.15764327      -2.23175517       1.40870193
Si       2.48459336      -4.42336310      -2.88448918        0        0        0       35       2.00916000       1.88352000      -1.14673000       1.47287486       1.88137895      -1.13216760
Si       4.51537914       3.88647624      -1.75321262        0        0        0       29      -1.11722000       0.40632000      -0.96996000      -0.73709321       0.37234727      -0.61976416
64
Lattice="11.106013 0.0 0.0 0.0 11.106013 0.0 0.0 0.0 11.106013" Properties=species:S:1:pos:R:3:map_shift:I:3:n_neighb:I:1:dft_force:R:3:gap_force:R:3 config_type=amorph dft_energy=-10420.848058 gap_energy=-10420.62780011 gap_virial="-14.21947264 -0.47820835 2.36764584 -0.47820835 -6.78738905 2.51942977 2.36764584 2.51942977 -12.65702458" cutoff=5.5 nneightol=1.2 pbc="T T T"
Si      -0.84735568      -3.05216102      -4.44885787        0        0        0       32       1.53772000      -1.26029000       0.00089000       1.58308097      -1.43675962      -0.07965507
Si       0.00237873       4.81714823       1.62939602        0        0        0       31       1.13283000       1.01129000      -0.93863000       1.00641082       1.18144981      -1.00043807
Si      -1.17819832      -5.45933626      -3.85362397        0        0        0       32       1.33447000       1.42457000       0.81871000       1.13678921       1.29537684       0.90657116
Si       5.02726189       4.19348328       0.53006557        0        0        0       33      -0.10461000      -0.92637000      -1.37933000       0.35473016      -0.68403980      -1.28970373
Si       1.31756442       3.17323938       0.37574600        0        0        0       29      -1.20713000      -0.40830000       1.28847000      -1.11024493      -0.40810490       0.87249168
Si       3.56238667      -3.46826181       0.44761559        0        0        0       33       0.53700000       0.19196000       0.74202000       0.33664448       0.06033142       0.38050026
Si       1.38106415       0.55249478       3.27362114        0        0        0       34       1.26896000      -1.03120000       1.15744000       1.22130367      -1.07387803       1.25051216
Si       4.94521946       2.63173514       4.61718663        0        0        0       26      -0.47187000       0.31204000      -0.02527000      -0.32035130       0.34167510       0.32627372
Si      -0.80935708       1.79261452      -2.76642604        0        0        0       29       0.01755000       1.02147000       1.43513000      -0.31802989       0.65040061       1.19574155
Si       2.18131904      -0.37814349      -4.10492053        0        0        0       28       1.22153000      -0.99508000       1.27203000       1.30285075      -0.95342046       1.26435231
Si       3.74045814      -5.43969627       1.78536094        0        0        0       30       0.40691000       1.01661000       0.52644000      -0.02579001       0.85818532       0.45796023
Si       1.64709482      -2.69225544      -4.29977789        0        0        0       34       0.20087000      -0.43580000      -0.66794000       0.16147903      -0.42326996      -0.60194054
Si      -1.60914358      -1.45209025      -0.74731452        0        0        0       30       1.19851000       0.98303000      -0.68185000       1.07566631       0.87156694      -0.66004461
Si       4.61451030      -0.33969089      -4.20395477        0        0        0       33      -0.98158000      -1.22048000       0.02112000      -0.74117298      -0.99907226       0.14094192
Si       5.41564655      -1.90497545      -2.54534887        0        0        0       29      -0.19279000       1.20643000      -0.13278000      -0.32109813       1.10433363       0.06857776
Si      -1.75064726      -1.39770571      -3.14863923        0        0        0       32       0.17395000       0.29737000       0.15645000       0.06120605       0.41280352       0.19231898
Si       0.81373642       5.32697804      -2.27947374        0        0        0       34      -1.01935000       1.74519000       0.24863000      -1.04877490       1.80508032       0.16277847
Si       1.04371559       3.05425825      -1.97520246        0        0        0       33      -0.03373000      -1.11910000      -0.10080000       0.08450239      -1.04601735       0.31677970
Si      -4.01669986      -4.50673458      -1.50882264        0        0        0       29      -0.22759000      -1.29807000      -1.79653000      -0.28746693      -1.15883789      -1.40897495
Si      -1.06311670       0.42942200      -4.59453022        0        0        0       30      -1.49509000      -0.17020000       0.55428000      -1.71914174      -0.30446407       0.42868614
Si      -0.57856715      -3.06811007       4.31629980        0        0        0       35      -0.40044000      -0.60871000      -0.38851000      -0.45149333      -0.63187177      -0.20671472
Si      -0.57664028       4.24797097      -5.49792015        0        0        0       32       1.64143000      -0.02853000      -1.15500000       1.46862132       0.08959052      -1.23619014
Si      -2.77272602      -2.45337269       3.63972949        0        0        0       37      -0.61159000      -0.02257000      -0.06213000      -0.64642537       0.09938249      -0.06646106
Si      -5.18655429       1.47886698      -4.65799054        0        0        0       31       0.73482000       0.53054000      -0.36115000       0.74103337       0.58132268      -0.57741897
Si      -5.46702054      -0.44855750       2.84951205        0        0        0       29      -1.05243000       0.53666000       0.98132000      -0.85038871       0.77618096       0.86856439
Si       2.81265498      -5.28229017       4.11066586        0        0        0       31      -0.14690000      -0.08703000      -1.12655000      -0.04481233      -0.05378147      -1.07333479
Si      -3.67876215      -2.65212599      -3.30367633        0        0        0       32      -0.21242000      -0.25541000      -0.48439000      -0.07303352      -0.35711258      -0.66825264
Si       3.79126390       1.41171986       2.95795896        0        0        0       31       0.12013000      -1.25632000      -0.31381000      -0.02600986      -1.18116520      -0.19203173
Si       1.88619366       0.32121897      -1.83103402        0        0        0       32      -0.46385000       0.25827000       0.59244000      -0.06942353       0.15898100       0.76384039
Si      -3.34171822       5.00618868      -3.59076506        0        0        0       33      -1.60287000       1.24980000       0.37819000      -1.54946287       1.08010086       0.41458120
Si      -4.22290438      -3.13742302       5.55043488        0        0        0       32      -0.51732000       1.35359000      -0.70874000      -0.61920871       1.17060981      -0.72408543
Si       4.39998201       5.04849844      -3.54199768        0        0        0       32      -0.71564000       0.25713000      -1.40427000      -0.42915878       0.37991114      -0.53901592
Si      -4.14915096       2.89277426      -3.07296410        0        0        0       29      -0.57478000       0.04876000       0.55365000      -0.58175087      -0.01396865       0.37752030
Si      -2.72942223       2.29165420      -1.34929725        0        0        0       36       0.52879000       0.97724000      -1.05651000       0.46525987       1.15122236      -1.01007453
Si       0.97071540       0.90047578      -5.46569907        0        0        0       31       0.33360000       1.26904000      -1.10347000       0.26978175       1.23682493      -1.00111589
Si      -1.98322380       3.73790972       1.73913969        0        0        0       29      -1.69916000      -0.99166000       0.59749000      -1.54460518      -0.70280070       0.66182150
Si       4.51464985      -3.89091931      -1.70266037        0        0        0       33       0.05974000       0.28665000       0.85439000       0.23990313       0.05413838       0.70956172
Si      -3.93437557      -3.36613799       1.67784620        0        0        0       32       0.94956000      -0.05811000      -0.48683000       0.81458372      -0.04409813      -0.33140174
Si       1.27150484      -3.07423175       0.95523645        0        0        0       29       0.92062000       2.31285000       0.72885000       0.87951419       2.37270647       0.86246382
Si       3.43817162       2.56121641       0.91480809        0        0        0       29       1.30306000      -1.47947000      -0.03271000       0.98959143      -1.05996041      -0.23460996
Si       4.92089807      -1.59729250       4.90171133        0        0        0       29       0.48801000      -0.96535000      -0.23800000       0.37226475      -1.31315051      -0.21399835
Si      -2.36189341       1.29304058       1.64580923        0        0        0       33       1.07889000       0.75591000      -1.49807000       0.90953820       0.71609807      -1.35585122
Si      -3.07357358       1.10636597       5.43400254        0        0        0       32       0.72915000       0.95200000      -0.84265000       0.79490978       0.84736543      -0.73956088
Si      -4.88075372       5.54153725       2.04933321        0        0        0       28      -0.13860000       0.38921000       1.00356000       0.15812292       0.23039763       0.88805082
Si       5.34370407      -1.91002074       1.04978696        0        0        0       31      -0.47707000      -1.15079000       1.47565000      -0.27360234      -1.27661531       1.41377185
Si       1.44543932       3.07162221      -4.29893881        0        0        0       29      -0.56421000      -0.16263000      -2.32213000      -0.10332608      -0.00946502      -2.26544793
Si       1.22534542      -2.04615180       3.31403221        0        0        0       27       0.40855000       0.51181000      -0.82446000       0.59352541       0.84376944      -0.98107685
Si      -0.02693251      -4.41999724      -0.27639098        0        0        0       29      -0.89385000      -2.27967000       0.09314000      -0.87101803      -2.30953172      -0.05120641
Si       3.33916708       4.07786640       5.52994139        0        0        0       32       0.03248000      -0.42563000       1.57534000      -0.11013740      -0.56822979       1.38169072
Si       2.89127011      -3.04552927       4.66911476        0        0        0       31       0.38062000       1.24322000       0.70473000       0.18261250       1.26931428       0.68778078
Si       0.06611531       1.37353428       1.59816991        0        0        0       27       0.23029000      -0.77789000      -1.58919000       0.10363063      -0.70350839      -1.62256555
Si      -2.28317107       3.43549597       4.20539702        0        0        0       30      -1.04069000      -0.70675000       0.20327000      -1.11497123      -0.71720875       0.12928340
Si      -3.10877352       0.28728872      -0.49936466        0        0        0       31      -0.73869000      -0.63685000       1.29589000      -0.61871577      -0.52457498       1.46372355
Si       4.16977000       1.03198498      -1.26029008        0        0        0       32      -1.55405000       1.57592000       0.85169000      -1.24228132       1.43970034       0.84406663
Si      -2.28002948      -3.58774837      -0.33748407        0        0        0       31      -0.23737000      -0.11823000       1.62183000      -0.06668263      -0.13056827       1.52432768
Si      -5.37274241      -0.52786221      -0.62616560        0        0        0       30       1.09350000       0.47352000      -1.14369000       0.95148152       0.57486123      -1.34395978
Si      -3.69611090       4.46708774      -0.01812594        0        0        0       31       0.53148000      -0.31606000       0.37856000       0.35097206      -0.39384514       0.01678053
Si       0.45229638      -5.33362748       3.85652747        0        0        0       31      -0.82583000      -0.45625000       0.30299000      -0.73292772      -0.33584363       0.26024682
Si      -4.56463398       4.33792441       4.15812630        0        0        0       31       0.57868000      -0.40728000      -1.05394000       0.50119133      -0.36683315      -1.04850742
Si      -5.05149650      -5.28204758      -5.30233137        0        0        0       30       0.56965000      -0.28754000       1.83165000       0.66486086      -0.27059265       1.55893806
Si       0.61198505      -0.81530440       0.18243472        0        0        0       32      -0.21962000       0.63101000      -0.93460000      -0.17621493       0.59874648      -0.90789391
Si      -3.09608646       0.08019391       3.35282678        0        0        0       31      -1.34748000      -1.94737000       1.06356000      -1.33259585      -1.92152672       0.95741651
Si       2.66201172      -4.38974957      -2.98052205        0        0        0       35      -0.22275000      -0.75335000      -0.23780000      -0.45990084      -0.74379175      -0.18616218
Si       4.92807125       3.36749202      -1.82456751        0        0        0       31       0.24799000       0.22124000      -0.21805000       0.10415543      -0.13451897      -0.13122172
64
Lattice="11.106013 0.0 0.0 0.0 11.106013 0.0 0.0 0.0 11.106013" Properties=species:S:1:pos:R:3:map_shift:I:3:n_neighb:I:1:dft_force:R:3:gap_force:R:3 config_type=amorph dft_energy=-10420.568955 gap_energy=-10420.88925248 gap_virial="-11.57431273 -4.12577665 8.20765965 -4.12577665 -4.19241273 -2.50987241 8.20765965 -2.50987241 -5.22122128" cutoff=5.5 nneightol=1.2 pbc="T T T"
Si      -0.44182270      -3.11134732      -4.58098815        0        0        0       30      -0.93121000       1.44191000      -0.00861000      -1.02253573       1.27000147      -0.16111306
Si      -0.15563943       4.70879622       1.69859366        0        0        0       31      -0.38283000       1.24218000       0.40032000      -0.54906067       1.11767684       0.13777689
Si      -1.00858830      -5.16624883      -3.79160723        0        0        0       31      -0.13904000      -1.76825000      -0.68657000      -0.09349793      -1.86891305      -0.58282284
Si       4.58059646       4.03960778       0.27586197        0        0        0       31      -0.09895000      -0.61088000      -0.18405000       0.04209750      -0.23994500      -0.45986088
Si       1.11439738       3.09723179       0.69736580        0        0        0       32       0.81514000      -2.42704000      -0.35335000       0.73256726      -2.26097797      -0.23144671
Si       3.68415508      -3.32931245       0.64934995        0        0        0       33       0.23937000      -0.42298000      -0.77917000       0.00233471      -0.30611293      -0.92656113
Si       1.42456244       0.32727481       3.54908470        0        0        0       34      -0.23871000      -0.26227000      -0.06719000      -0.02093606      -0.23802393      -0.05603744
Si       5.01395027       2.71689461       4.34794146        0        0        0       28      -1.05302000       0.17091000      -0.00749000      -0.88007855       0.31476789       0.30794945
Si      -1.12508311       2.14749303      -2.61171913        0        0        0       30      -0.01186000       0.34872000       0.45257000      -0.19733773       0.32844786      -0.13319026
Si       2.47092077      -0.60835007      -3.70364793        0        0        0       32      -0.59648000       1.11513000      -0.30473000      -0.26461102       1.12505207      -0.17581409
Si       4.13708998      -5.28631651       1.81202640        0        0        0       30       0.02470000      -0.14482000       0.35653000      -0.26218640      -0.21556511       0.60877137
Si       1.77928584      -2.75747380      -4.42334389        0        0        0       31       2.31730000      -0.68788000      -0.11986000       2.34023594      -0.92714925       0.01847071
Si      -1.49182383      -1.36229217      -1.10864028        0        0        0       32      -0.76399000       0.04150000       0.86438000      -0.88490019      -0.08454430       1.11793438
Si       4.96191895      -0.41287912      -4.04597677        0        0        0       32      -1.44309000       0.78941000      -1.18518000      -1.20823255       1.09036902      -1.16126254
Si      -5.40333173      -1.66690115      -2.32935627        0        0        0       30       0.78841000      -1.47415000       0.07971000       0.59903790      -1.35452037       0.12731623
Si      -1.64898876      -1.30285599      -3.39324140        0        0        0       37      -0.10759000      -1.65924000      -0.49683000       0.04041728      -1.42484039      -0.54351491
Si       0.70718237       5.25466555      -2.24201748        0        0        0       34       0.31960000       0.57860000       0.94500000       0.08074164       0.87491955       0.69030406
Si       1.16481304       2.83807838      -1.89828743        0        0        0       29      -1.35224000       1.01526000       0.00070000      -1.11166702       0.45586813       0.19374829
Si      -3.82899922      -4.90041450      -1.26253243        0        0        0       30      -0.12669000      -0.56519000      -1.58167000      -0.04116307      -0.81314434      -1.18660218
Si      -1.30486539       0.64025896      -4.53349178        0        0        0       32       1.12657000       0.33718000       1.65459000       1.14904073       0.27565986       1.85445587
Si      -0.66827704      -3.04908507       4.12952775        0        0        0       33      -0.19830000       1.33537000       0.76445000      -0.25011818       1.16247446       0.88618546
Si      -0.67363845       4.39138052       5.21265484        0        0        0       35       1.31137000       0.71039000       2.13318000       0.86984049       0.87498737       2.13031070