2
Lattice="3.16925309 0.04616309 0.07022726 -0.06813274 3.00387606 0.02063549 0.01827667 -0.06107528 3.22849398" Properties=species:S:1:pos:R:3:dft_force:R:3 config_type=bcc Minim_Constant_Volume=T dft_virial="0.01766165 0.0122957 -0.26224795 0.0122957 -0.85007019 -0.07875464 -0.26224795 -0.07875464 -0.26678162" dft_energy=-325.14809468 cutoff=-1.0 nneightol=1.2 pbc="T T T"
Si       0.04966964      -0.01382687       0.06476999       0.27722000       0.03286000      -0.47909000
Si       1.69606189       1.52034253       1.52034558      -0.27722000      -0.03286000       0.47909000
2
Lattice="3.12760838 -0.00896283 -0.09778005 0.00951527 3.03359502 -0.03104753 0.03753205 0.02111264 3.12030153" Properties=species:S:1:pos:R:3:dft_force:R:3 config_type=bcc Minim_Constant_Volume=T dft_virial="0.02201328 0.02896954 0.07162534 0.02896954 -0.39487459 -0.03380744 0.07162534 -0.03380744 0.06472102" dft_energy=-325.20285006 cutoff=-1.0 nneightol=1.2 pbc="T T T"
Si       0.04967031      -0.01382610       0.06476879       0.09621000       0.01097000      -0.05445000
Si       1.69605968       1.52034236       1.52034607      -0.09621000      -0.01097000       0.05445000
2
Lattice="3.04399585 0.03298755 0.00280576 0.11271571 3.09982752 -0.09757682 0.09731002 0.08975036 3.10831308" Properties=species:S:1:pos:R:3:dft_force:R:3 config_type=bcc Minim_Constant_Volume=T dft_virial="-0.16999289 -0.06617201 0.06255501 -0.06617201 0.26743691 -0.04446088 0.06255501 -0.04446088 0.43052602" dft_energy=-325.19538225 cutoff=-1.0 nneightol=1.2 pbc="T T T"
Si       0.04967154      -0.01382576       0.06476915       0.11223000      -0.19770000      -0.14786000
Si       1.69606026       1.52034239       1.52034607      -0.11223000       0.19770000       0.14786000
2
Lattice="3.10437302 0.00422034 0.05313319 0.05212626 3.06103975 -0.01851512 -0.05158934 0.0887624 3.18079039" Properties=species:S:1:pos:R:3:dft_force:R:3 config_type=bcc Minim_Constant_Volume=T dft_virial="-0.22842612 0.07153644 -0.2056872 0.07153644 -0.47577417 0.03240277 -0.2056872 0.03240277 -0.0257587" dft_energy=-325.17379633 cutoff=-1.0 nneightol=1.2 pbc="T T T"
Si       0.04967209      -0.01382589       0.06476756       0.18405000      -0.04375000      -0.30628000
Si       1.69605954       1.52034163       1.52034443      -0.18405000       0.04375000       0.30628000
2
Lattice="3.07447846 0.12626833 0.08432954 0.01182415 3.09397051 -0.02316978 -0.02962591 0.0373329 3.09325424" Properties=species:S:1:pos:R:3:dft_force:R:3 config_type=bcc Minim_Constant_Volume=T dft_virial="0.2405808 -0.23367212 -0.31569599 -0.23367212 0.35551468 0.26338359 -0.31569599 0.26338359 0.40767351" dft_energy=-325.15035125 cutoff=-1.0 nneightol=1.2 pbc="T T T"
Si       0.04967194      -0.01382689       0.06476879       0.37033000      -0.32218000      -0.33196000
Si       1.69605948       1.52034269       1.52034435      -0.37033000       0.32218000       0.33196000
2
Lattice="3.03605259 0.02240912 -0.00584077 0.12075883 2.92685211 0.03548655 -0.01516737 -0.05553881 3.15538209" Properties=species:S:1:pos:R:3:dft_force:R:3 config_type=bcc Minim_Constant_Volume=T dft_virial="1.41906284 -0.18747015 -0.20090696 -0.18747015 0.59331055 -0.18311382 -0.20090696 -0.18311382 1.22459317" dft_energy=-325.15934765 cutoff=-1.0 nneightol=1.2 pbc="T T T"
Si       0.04967181      -0.01382534       0.06476749       0.13993000       0.12709000      -0.54116000
Si       1.69605985       1.52034367       1.52034600      -0.13993000      -0.12709000       0.54116000
2
Lattice="3.17456518 -0.00887275 0.030019 0.05826001 3.1110456 -0.03019044 -0.0581856 0.01958843 3.07273103" Properties=species:S:1:pos:R:3:dft_force:R:3 config_type=bcc Minim_Constant_Volume=T dft_virial="-0.1677127 -0.06418897 -0.1302224 -0.06418897 -0.42962832 0.02124582 -0.1302224 0.02124582 -0.77265303" dft_energy=-325.19164337 cutoff=-1.0 nneightol=1.2 pbc="T T T"
Si       0.04966994      -0.01382705       0.06476983       0.09716000      -0.05339000      -0.07984000
Si       1.69606088       1.52034172       1.52034357      -0.09716000       0.05339000       0.07984000
2
Lattice="3.19612533 -0.00525315 -0.02916906 -0.01156174 2.99965383 -0.172378 -0.02059572 0.05282035 3.03933626" Properties=species:S:1:pos:R:3:dft_force:R:3 config_type=bcc Minim_Constant_Volume=T dft_virial="0.51154342 0.18127669 0.11564284 0.18127669 -0.0008514 0.01216611 0.11564284 0.01216611 0.14376713" dft_energy=-325.21020763 cutoff=-1.0 nneightol=1.2 pbc="T T T"
Si       0.04967239      -0.01382681       0.06477049       0.21789000       0.04606000       0.08571000
Si       1.69606047       1.52034193       1.52034538      -0.21789000      -0.04606000      -0.08571000
2
Lattice="3.07641861 -0.07456395 -0.09456422 -0.02520418 3.0118046 0.03071917 0.02268641 0.05630002 3.08369544" Properties=species:S:1:pos:R:3:dft_force:R:3 config_type=bcc Minim_Constant_Volume=T dft_virial="0.63018573 -0.03941131 -0.13482185 -0.03941131 0.45119397 -0.04251293 -0.13482185 -0.04251293 0.9537694" dft_energy=-325.1737924 cutoff=-1.0 nneightol=1.2 pbc="T T T"
Si       0.04967033      -0.01382485       0.06477026       0.28550000       0.15640000      -0.14413000
Si       1.69605997       1.52034309       1.52034393      -0.28550000      -0.15640000       0.14413000
2
Lattice="3.01587841 -0.00459021 -0.07753104 0.06011819 3.14579392 0.06369777 0.02419241 -0.12167444 3.12580854" Properties=species:S:1:pos:R:3:dft_force:R:3 config_type=bcc Minim_Constant_Volume=T dft_virial="-0.41387322 0.00305131 -0.10786457 0.00305131 0.15433608 0.11123068 -0.10786457 0.11123068 0.16662544" dft_energy=-325.19545817 cutoff=-1.0 nneightol=1.2 pbc="T T T"
Si       0.04967232      -0.01382524       0.06476856       0.08931000       0.00759000      -0.19230000
Si       1.69606056       1.52034187       1.52034359      -0.08931000      -0.00759000       0.19230000
2
Lattice="3.14095946 -0.00236794 0.09466223 0.07259738 2.98896804 0.00813503 0.05536256 -0.00041429 3.09656599" Properties=species:S:1:pos:R:3:dft_force:R:3 config_type=bcc Minim_Constant_Volume=T dft_virial="0.80188464 -0.11560838 -0.2521717 -0.11560838 0.23602338 -0.01987714 -0.2521717 -0.01987714 0.21090963" dft_energy=-325.17998033 cutoff=-1.0 nneightol=1.2 pbc="T T T"
Si       0.04967091      -0.01382745       0.06476950       0.13737000       0.06141000      -0.32705000
Si       1.69606108       1.52034303       1.52034521      -0.13737000      -0.06141000       0.32705000
2
Lattice="3.12411473 0.01705157 -0.02997903 -0.058866 3.03076791 0.03254685 -0.09497821 0.01284379 3.12503992" Properties=species:S:1:pos:R:3:dft_force:R:3 config_type=bcc Minim_Constant_Volume=T dft_virial="0.19102229 -0.0402167 -0.06888253 -0.0402167 0.00355376 -0.00391454 -0.06888253 -0.00391454 0.28722519" dft_energy=-325.17699549 cutoff=-1.0 nneightol=1.2 pbc="T T T"
Si       0.04967021      -0.01382564       0.06476906       0.30692000       0.04729000      -0.15727000
Si       1.69606063       1.52034270       1.52034443      -0.30692000      -0.04729000       0.15727000
2
Lattice="2.98305348 -0.00201666 0.00344206 0.05591945 3.07746226 0.10561538 0.01183408 -0.00521027 3.16589285" Properties=species:S:1:pos:R:3:dft_force:R:3 config_type=bcc Minim_Constant_Volume=T dft_virial="0.14370185 0.05264431 -0.30950266 0.05264431 0.82557807 -0.19154054 -0.30950266 -0.19154054 0.72853936" dft_energy=-325.14861914 cutoff=-1.0 nneightol=1.2 pbc="T T T"
Si       0.04967177      -0.01382633       0.06477022       0.23876000       0.07729000      -0.57340000
Si       1.69606146       1.52034224       1.52034490      -0.23876000      -0.07729000       0.57340000
2
Lattice="3.00868717 -0.16209736 0.04854036 0.0642846 3.08825935 0.00382208 0.01134946 0.03022718 3.12131694" Properties=species:S:1:pos:R:3:dft_force:R:3 config_type=bcc Minim_Constant_Volume=T dft_virial="0.06655672 0.25868648 -0.26842783 0.25868648 0.6052451 -0.14615022 -0.26842783 -0.14615022 0.83110172" dft_energy=-325.1595081 cutoff=-1.0 nneightol=1.2 pbc="T T T"
Si       0.04967010      -0.01382647       0.06476774       0.29991000       0.25940000      -0.46024000
Si       1.69606059       1.52034264       1.52034479      -0.29991000      -0.25940000       0.46024000
2
Lattice="3.1922451 0.08053447 -0.00786017 0.06517194 3.08629097 -0.04594522 0.04843254 -0.05551527 3.09423016" Properties=species:S:1:pos:R:3:dft_force:R:3 config_type=bcc Minim_Constant_Volume=T dft_virial="-0.22876541 -0.1015929 0.00992498 -0.1015929 -0.77894957 -0.14151697 0.00992498 -0.14151697 -0.38839667" dft_energy=-325.19690415 cutoff=-1.0 nneightol=1.2 pbc="T T T"
Si       0.04967198      -0.01382615       0.06476819       0.02244000      -0.04309000      -0.09792000
Si       1.69606026       1.52034381       1.52034637      -0.02244000       0.04309000       0.09792000
2
Lattice="3.08292528 -0.09708939 0.00018458 -0.05736031 3.08445233 0.03146795 -0.01981424 -0.08271815 3.08527153" Properties=species:S:1:pos:R:3:dft_force:R:3 config_type=bcc Minim_Constant_Volume=T dft_virial="0.15430447 0.25620152 -0.14254937 0.25620152 0.4006655 -0.17647814 -0.14254937 -0.17647814 0.58676611" dft_energy=-325.15708848 cutoff=-1.0 nneightol=1.2 pbc="T T T"
Si       0.04966989      -0.01382541       0.06476972       0.37705000       0.29205000      -0.22957000
Si       1.69606084       1.52034422       1.52034500      -0.37705000      -0.29205000       0.22957000
2
Lattice="3.02231417 -0.03956419 0.06287084 -0.03888335 3.03798756 0.07516455 0.04322955 0.04247374 3.1115129" Properties=species:S:1:pos:R:3:dft_force:R:3 config_type=bcc Minim_Constant_Volume=T dft_virial="1.07144042 0.26143921 -0.51845976 0.26143921 1.09432156 -0.25546993 -0.51845976 -0.25546993 0.84401611" dft_energy=-325.10853978 cutoff=-1.0 nneightol=1.2 pbc="T T T"
Si       0.04967252      -0.01382703       0.06476951       0.51881000       0.28093000      -0.66745000
Si       1.69606192       1.52034235       1.52034602      -0.51881000      -0.28093000       0.66745000
2
Lattice="3.17385926 0.09613659 0.01374537 -0.01096441 3.05760143 0.03321628 0.04419775 -0.01497956 2.9266069" Properties=species:S:1:pos:R:3:dft_force:R:3 config_type=bcc Minim_Constant_Volume=T dft_virial="0.95216392 -0.24054196 -0.10799935 -0.24054196 0.81081051 0.03233026 -0.10799935 0.03233026 0.08635005" dft_energy=-325.20666544 cutoff=-1.0 nneightol=1.2 pbc="T T T"
Si       0.04967050      -0.01382494       0.06476997       0.17025000      -0.10266000      -0.05839000
Si       1.69606054       1.52034190       1.52034416      -0.17025000       0.10266000       0.05839000
2
Lattice="3.06620089 -0.02342566 0.06220171 -0.04048251 3.09292011 -0.05218542 0.02595838 0.0253969 3.05901243" Properties=species:S:1:pos:R:3:dft_force:R:3 config_type=bcc Minim_Constant_Volume=T dft_virial="0.21887802 0.02963823 -0.02532777 0.02963823 0.85196578 0.05379917 -0.02532777 0.05379917 0.15845249" dft_energy=-325.17588916 cutoff=-1.0 nneightol=1.2 pbc="T T T"
Si       0.04967099      -0.01382645       0.06476761       0.28542000      -0.00472000      -0.22456000
Si       1.69606020       1.52034404       1.52034541      -0.28542000       0.00472000       0.22456000
2
Lattice="3.02921669 -0.03943107 -0.02289399 -0.13283759 3.06016835 0.05549144 -0.04695604 -0.0087067 2.96651404" Properties=species:S:1:pos:R:3:dft_force:R:3 config_type=bcc Minim_Constant_Volume=T dft_virial="1.23433137 0.51776903 -0.17020124 0.51776903 2.17646018 -0.15694991 -0.17020124 -0.15694991 1.79052779" dft_energy=-325.06670275 cutoff=-1.0 nneightol=1.2 pbc="T T T"
Si       0.04967121      -0.01382583       0.06476761       0.74994000       0.41996000      -0.09980000
Si       1.69606027       1.52034404       1.52034647      -0.74994000      -0.41996000       0.09980000
2
Lattice="3.09597635 0.02622106 -0.01775972 0.07105444 3.12176164 -0.02482289 0.12212291 -0.02263287 2.97633584" Properties=species:S:1:pos:R:3:dft_force:R:3 config_type=bcc Minim_Constant_Volume=T dft_virial="0.55903101 -0.34809023 -0.13314607 -0.34809023 0.69315432 0.05297605 -0.13314607 0.05297605 0.00546986" dft_energy=-325.20626425 cutoff=-1.0 nneightol=1.2 pbc="T T T"
Si       0.04967057      -0.01382563       0.06476950       0.03089000      -0.08856000      -0.02917000
Si       1.69606177       1.52034453       1.52034435      -0.03089000       0.08856000       0.02917000
2
Lattice="2.95723906 0.02008562 -0.02008106 0.0786833 3.05177026 0.02628963 0.0423235 0.06569447 3.09430614" Properties=species:S:1:pos:R:3:dft_force:R:3 config_type=bcc Minim_Constant_Volume=T dft_virial="0.70989123 0.02054696 -0.22501456 0.02054696 1.2747457 -0.0873845 -0.22501456 -0.0873845 1.42076141" dft_energy=-325.15337263 cutoff=-1.0 nneightol=1.2 pbc="T T T"
Si       0.04967038      -0.01382666       0.06476939       0.26385000      -0.10705000      -0.33554000
Si       1.69606123       1.52034442       1.52034416      -0.26385000       0.10705000       0.33554000
2
Lattice="3.03255895 -0.07390424 -0.04120398 0.03349119 3.0534176 0.03558593 0.00475801 -0.04467686 2.97738317" Properties=species:S:1:pos:R:3:dft_force:R:3 config_type=bcc Minim_Constant_Volume=T dft_virial="1.13146318 0.11254591 -0.04672501 0.11254591 1.63673878 -0.03990764 -0.04672501 -0.03990764 1.15823137" dft_energy=-325.14032766 cutoff=-1.0 nneightol=1.2 pbc="T T T"
Si       0.04967178      -0.01382559       0.06476909       0.37488000       0.27874000      -0.05388000
Si       1.69606124       1.52034153       1.52034432      -0.37488000      -0.27874000       0.05388000
2
Lattice="3.20687359 -0.04079505 0.11387947 -0.05535703 3.11979193 0.07370224 0.03717114 -0.00011371 3.12956448" Properties=species:S:1:pos:R:3:dft_force:R:3 config_type=bcc Minim_Constant_Volume=T dft_virial="-0.28802714 0.16709686 0.01571409 0.16709686 -0.44143515 0.19304224 0.01571409 0.19304224 -1.13965401" dft_energy=-325.15156516 cutoff=-1.0 nneightol=1.2 pbc="T T T"
Si       0.04967027      -0.01382457       0.06476867       0.23757000       0.09183000      -0.21708000
Si       1.69606101       1.52034324       1.52034448      -0.23757000      -0.09183000       0.21708000
2
Lattice="3.11706537 -0.07931547 -0.01814395 -0.04951583 3.17557819 0.00460661 0.05455132 -0.09023333 3.12007535" Properties=species:S:1:pos:R:3:dft_force:R:3 config_type=bcc Minim_Constant_Volume=T dft_virial="-0.71714832 0.07500698 -0.09407039 0.07500698 -0.47541412 -0.12216069 -0.09407039 -0.12216069 -0.62762154" dft_energy=-325.1764287 cutoff=-1.0 nneightol=1.2 pbc="T T T"
Si       0.04967218      -0.01382686       0.06476897       0.10910000       0.06539000      -0.11753000
Si       1.69606072       1.52034411       1.52034512      -0.10910000      -0.06539000       0.11753000
2
Lattice="3.11227423 0.10403741 0.01028113 -0.00429138 3.10859801 -0.07759348 -0.0008243 0.01714791 3.06401497" Properties=species:S:1:pos:R:3:dft_force:R:3 config_type=bcc Minim_Constant_Volume=T dft_virial="0.12439158 -0.16001604 -0.04339443 -0.16001604 0.09688276 0.01074715 -0.04339443 0.01074715 -0.1459499" dft_energy=-325.18065179 cutoff=-1.0 nneightol=1.2 pbc="T T T"
Si       0.04967027      -0.01382494       0.06476906       0.23975000      -0.20906000      -0.11245000
Si       1.69606058       1.52034374       1.52034584      -0.23975000       0.20906000       0.11245000
2
Lattice="3.12978831 0.1103487 0.00717415 -0.04920511 3.09225923 -0.04902151 0.00360307 0.03013736 3.11530964" Properties=species:S:1:pos:R:3:dft_force:R:3 config_type=bcc Minim_Constant_Volume=T dft_virial="-0.00066495 -0.00569227 -0.15260896 -0.00569227 -0.40979787 0.12978716 -0.15260896 0.12978716 -0.3007032" dft_energy=-325.17332917 cutoff=-1.0 nneightol=1.2 pbc="T T T"
Si       0.04967005      -0.01382544       0.06476940       0.21984000      -0.15693000      -0.15107000
Si       1.69605952       1.52034256       1.52034531      -0.21984000       0.15693000       0.15107000
2
Lattice="3.0938982 0.06477495 0.03280043 0.0126844 3.11131337 -0.12298816 -0.10944064 0.00599324 3.12150539" Properties=species:S:1:pos:R:3:dft_force:R:3 config_type=bcc Minim_Constant_Volume=T dft_virial="-0.31501151 0.01875894 -0.26371294 0.01875894 -0.1065705 -0.01022028 -0.26371294 -0.01022028 0.09176129" dft_energy=-325.17567483 cutoff=-1.0 nneightol=1.2 pbc="T T T"
Si       0.04967010      -0.01382693       0.06476781       0.24096000      -0.17450000      -0.11423000
Si       1.69606242       1.52034452       1.52034556      -0.24096000       0.17450000       0.11423000
2
Lattice="3.11214839 0.04296405 0.09833136 0.02419151 2.93030656 -0.0490569 -0.05456528 0.07328294 3.10757218" Properties=species:S:1:pos:R:3:dft_force:R:3 config_type=bcc Minim_Constant_Volume=T dft_virial="1.24608388 0.01551578 -0.47873621 0.01551578 0.16917428 -0.10203637 -0.47873621 -0.10203637 1.02861886" dft_energy=-325.16825825 cutoff=-1.0 nneightol=1.2 pbc="T T T"
Si       0.04967205      -0.01382529       0.06476760       0.39831000      -0.01204000      -0.42361000
Si       1.69606214       1.52034335       1.52034602      -0.39831000       0.01204000       0.42361000
2
Lattice="3.06796445 -0.11894079 -0.03524229 -0.1504134 3.04783854 -0.01688979 -0.13936352 0.04296692 3.12889677" Properties=species:S:1:pos:R:3:dft_force:R:3 config_type=bcc Minim_Constant_Volume=T dft_virial="-0.08526997 0.50251627 -0.21610575 0.50251627 0.9046735 0.06196494 -0.21610575 0.06196494 1.64475689" dft_energy=-325.12456953 cutoff=-1.0 nneightol=1.2 pbc="T T T"
Si       0.04967190      -0.01382700       0.06476746       0.53195000       0.45636000      -0.13090000
Si       1.69606050       1.52034265       1.52034561      -0.53195000      -0.45636000       0.13090000
2
Lattice="3.21665463 0.07052387 0.00762628 -0.00694627 3.17851998 0.02284772 -0.02470984 0.13058981 3.07503968" Properties=species:S:1:pos:R:3:dft_force:R:3 config_type=bcc Minim_Constant_Volume=T dft_virial="-0.53382557 -0.13242009 -0.03444085 -0.13242009 -0.93905312 0.27140512 -0.03444085 0.27140512 -0.96638167" dft_energy=-325.16788754 cutoff=-1.0 nneightol=1.2 pbc="T T T"
Si       0.04967219      -0.01382527       0.06476756       0.13120000      -0.16090000      -0.01553000
Si       1.69606037       1.52034163       1.52034606      -0.13120000       0.16090000       0.01553000
2
Lattice="3.115373 0.01080595 -0.1255813 -0.02661371 3.17386932 0.03336919 0.03067085 -0.05622112 3.09356998" Properties=species:S:1:pos:R:3:dft_force:R:3 config_type=bcc Minim_Constant_Volume=T dft_virial="-0.62938914 -0.15691679 -0.21016272 -0.15691679 -0.26668894 -0.00347456 -0.21016272 -0.00347456 -0.86629462" dft_energy=-325.1896491 cutoff=-1.0 nneightol=1.2 pbc="T T T"
Si       0.04967220      -0.01382688       0.06476807       0.09891000      -0.04850000      -0.02680000
Si       1.69606123       1.52034435       1.52034572      -0.09891000       0.04850000       0.02680000
2
Lattice="3.12000627 0.0320733 0.13188497 0.02612692 3.1417715 -0.00240697 -0.02021905 -0.03366797 3.132663" Properties=species:S:1:pos:R:3:dft_force:R:3 config_type=bcc Minim_Constant_Volume=T dft_virial="-0.49049239 -0.02262033 -0.05032094 -0.02262033 0.02866809 0.07061927 -0.05032094 0.07061927 -0.71197173" dft_energy=-325.15402601 cutoff=-1.0 nneightol=1.2 pbc="T T T"
Si       0.04967046      -0.01382711       0.06476957       0.25542000      -0.14549000      -0.27989000
Si       1.69606024       1.52034345       1.52034521      -0.25542000       0.14549000       0.27989000
2
Lattice="3.09920121 0.07158956 -0.07001874 -0.04687783 3.00329496 0.00393714 0.01346826 -0.01184494 3.12035896" Properties=species:S:1:pos:R:3:dft_force:R:3 config_type=bcc Minim_Constant_Volume=T dft_virial="0.19502028 0.07212957 -0.1406118 0.07212957 0.16237069 0.12644918 -0.1406118 0.12644918 0.58870618" dft_energy=-325.18881735 cutoff=-1.0 nneightol=1.2 pbc="T T T"
Si       0.04967047      -0.01382481       0.06476901       0.25086000      -0.01064000      -0.16227000
Si       1.69605948       1.52034201       1.52034550      -0.25086000       0.01064000       0.16227000
2
Lattice="3.10502675 -0.12690614 0.07922336 -0.15454535 3.08677055 -0.07269997 -0.07027723 -0.06536418 2.948951" Properties=species:S:1:pos:R:3:dft_force:R:3 config_type=bcc Minim_Constant_Volume=T dft_virial="1.22640593 0.87477202 0.21096443 0.87477202 1.69133818 0.19777616 0.21096443 0.19777616 1.29158156" dft_energy=-325.05685195 cutoff=-1.0 nneightol=1.2 pbc="T T T"
Si       0.04966997      -0.01382504       0.06476777       0.86273000       0.76429000       0.09051000
Si       1.69606063       1.52034309       1.52034463      -0.86273000      -0.76429000      -0.09051000
2
Lattice="3.04091742 -0.07892076 0.05033497 0.04553038 3.00805442 -0.03483937 -0.0076345 0.02338441 3.18605595" Properties=species:S:1:pos:R:3:dft_force:R:3 config_type=bcc Minim_Constant_Volume=T dft_virial="0.29390508 0.06847893 -0.29022606 0.06847893 0.28419148 -0.06944222 -0.29022606 -0.06944222 0.61546897" dft_energy=-325.16485707 cutoff=-1.0 nneightol=1.2 pbc="T T T"
Si       0.04967050      -0.01382476       0.06476968       0.29444000       0.12829000      -0.49962000
Si       1.69606109       1.52034305       1.52034654      -0.29444000      -0.12829000       0.49962000
2
Lattice="3.10744606 -0.00116633 0.01091994 -0.05381293 3.07511978 -0.09252155 0.03240726 0.0321365 3.11865681" Properties=species:S:1:pos:R:3:dft_force:R:3 config_type=bcc Minim_Constant_Volume=T dft_virial="-0.26498321 -0.0172256 -0.06976013 -0.0172256 -0.21119412 -0.00874118 -0.06976013 -0.00874118 0.17785254" dft_energy=-325.18590168 cutoff=-1.0 nneightol=1.2 pbc="T T T"
Si       0.04966955      -0.01382556       0.06476987       0.16868000      -0.02322000      -0.13999000
Si       1.69606148       1.52034229       1.52034508      -0.16868000       0.02322000       0.13999000
2
Lattice="2.94962686 0.06870872 -0.05033117 0.03337575 3.23516837 0.08998558 0.05411484 0.0237273 3.01737335" Properties=species:S:1:pos:R:3:dft_force:R:3 config_type=bcc Minim_Constant_Volume=T dft_virial="0.11424927 -0.5112909 -0.03176176 -0.5112909 0.72211653 -0.09066532 -0.03176176 -0.09066532 1.1623695" dft_energy=-325.15660669 cutoff=-1.0 nneightol=1.2 pbc="T T T"
Si       0.04966977      -0.01382468       0.06476863       0.29248000      -0.55222000      -0.07864000
Si       1.69606006       1.52034416       1.52034494      -0.29248000       0.55222000       0.07864000
2
Lattice="2.9552974 -0.01041807 -0.00948071 -0.04112134 3.01344456 0.08784077 -0.01845658 -0.08602841 3.03559808" Properties=species:S:1:pos:R:3:dft_force:R:3 config_type=bcc Minim_Constant_Volume=T dft_virial="1.21763619 0.42024322 -0.26629675 0.42024322 2.46471974 -0.26115226 -0.26629675 -0.26115226 2.39860253" dft_energy=-325.05181451 cutoff=-1.0 nneightol=1.2 pbc="T T T"
Si       0.04967027      -0.01382645       0.06477038       0.63904000       0.41474000      -0.45316000
Si       1.69605960       1.52034349       1.52034578      -0.63904000      -0.41474000       0.45316000
2
Lattice="3.07887889 0.11054419 0.05635602 -0.01231608 3.06345429 -0.01802701 -0.02566903 -0.04776193 3.07475516" Properties=species:S:1:pos:R:3:dft_force:R:3 config_type=bcc Minim_Constant_Volume=T dft_virial="0.3358787 -0.02851603 -0.15655529 -0.02851603 0.44531107 0.10560483 -0.15655529 0.10560483 0.61385159" dft_energy=-325.16344774 cutoff=-1.0 nneightol=1.2 pbc="T T T"
Si       0.04967222      -0.01382724       0.06476828       0.35091000      -0.18870000      -0.30174000
Si       1.69606152       1.52034411       1.52034406      -0.35091000       0.18870000       0.30174000
2
Lattice="3.11781156 0.06589423 -0.16544946 -0.01660506 3.07609901 0.01772283 0.02853013 0.09249839 3.01917196" Properties=species:S:1:pos:R:3:dft_force:R:3 config_type=bcc Minim_Constant_Volume=T dft_virial="0.6778162 -0.13407355 0.31727427 -0.13407355 0.54613893 -0.12145174 0.31727427 -0.12145174 0.09264219" dft_energy=-325.17803403 cutoff=-1.0 nneightol=1.2 pbc="T T T"
Si       0.04967229      -0.01382649       0.06476864       0.29427000      -0.26638000       0.15867000
Si       1.69606131       1.52034220       1.52034581      -0.29427000       0.26638000      -0.15867000
2
Lattice="3.09529502 0.17531334 -0.08108214 -0.05359212 3.03787216 -0.04674563 -0.00846449 -0.0211513 3.07073994" Properties=species:S:1:pos:R:3:dft_force:R:3 config_type=bcc Minim_Constant_Volume=T dft_virial="0.60029732 -0.04893086 -0.05743973 -0.04893086 0.29164294 -0.1169041 -0.05743973 -0.1169041 0.69360348" dft_energy=-325.17258713 cutoff=-1.0 nneightol=1.2 pbc="T T T"
Si       0.04967206      -0.01382560       0.06476876       0.36800000      -0.20393000      -0.00537000
Si       1.69606030       1.52034274       1.52034481      -0.36800000       0.20393000       0.00537000
2
Lattice="3.00533124 -0.12085466 0.03885607 -0.08088654 3.0993083 -0.06840812 0.11654674 -0.00456934 3.11062488" Properties=species:S:1:pos:R:3:dft_force:R:3 config_type=bcc Minim_Constant_Volume=T dft_virial="-0.12116359 0.28489613 -0.11191517 0.28489613 0.95216558 0.03826631 -0.11191517 0.03826631 0.93971794" dft_energy=-325.16383985 cutoff=-1.0 nneightol=1.2 pbc="T T T"
Si       0.04967060      -0.01382504       0.06477020       0.33740000       0.26181000      -0.36538000
Si       1.69606141       1.52034358       1.52034557      -0.33740000      -0.26181000       0.36538000
2
Lattice="3.14755568 0.03534879 -0.02701636 -0.0556115 3.06899464 0.05471346 -0.09752652 0.08010396 3.16051798" Properties=species:S:1:pos:R:3:dft_force:R:3 config_type=bcc Minim_Constant_Volume=T dft_virial="-0.10521581 -0.10940964 -0.09626154 -0.10940964 -0.53177232 0.02981409 -0.09626154 0.02981409 -0.29965011" dft_energy=-325.1737563 cutoff=-1.0 nneightol=1.2 pbc="T T T"
Si       0.04966961      -0.01382588       0.06476787       0.22040000      -0.01072000      -0.15647000
Si       1.69606252       1.52034240       1.52034651      -0.22040000       0.01072000       0.15647000
2
Lattice="3.09926219 0.04712019 0.12872315 0.01890034 2.97612519 -0.02899634 -0.10591586 -0.03471507 3.03360221" Properties=species:S:1:pos:R:3:dft_force:R:3 config_type=bcc Minim_Constant_Volume=T dft_virial="1.3534353 -0.14217686 -0.20010633 -0.14217686 0.82190198 -0.08729945 -0.20010633 -0.08729945 1.21187816" dft_energy=-325.13603661 cutoff=-1.0 nneightol=1.2 pbc="T T T"
Si       0.04967091      -0.01382675       0.06476975       0.51632000      -0.00260000      -0.37545000
Si       1.69606027       1.52034262       1.52034482      -0.51632000       0.00260000       0.37545000
2
Lattice="3.11138843 0.00398943 -0.00805884 0.10479131 3.1467775 0.06450051 0.027268 0.05467987 3.0214211" Properties=species:S:1:pos:R:3:dft_force:R:3 config_type=bcc Minim_Constant_Volume=T dft_virial="0.20940217 -0.11835664 -0.11327573 -0.11835664 0.06389776 -0.0788354 -0.11327573 -0.0788354 -0.16126448" dft_energy=-325.19724072 cutoff=-1.0 nneightol=1.2 pbc="T T T"
Si       0.04966971      -0.01382630       0.06476797       0.08932000      -0.13423000      -0.08429000
Si       1.69606117       1.52034205       1.52034451      -0.08932000       0.13423000       0.08429000
2
Lattice="3.053345 -0.11180926 0.07272916 0.0273403 2.96865387 -0.07177091 0.05622357 -0.0724375 3.08986452" Properties=species:S:1:pos:R:3:dft_force:R:3 config_type=bcc Minim_Constant_Volume=T dft_virial="1.42466051 0.07300657 -0.33021833 0.07300657 0.71509201 -0.11749465 -0.33021833 -0.11749465 1.49293895" dft_energy=-325.13563846 cutoff=-1.0 nneightol=1.2 pbc="T T T"
Si       0.04967092      -0.01382499       0.06476786       0.37876000       0.31256000      -0.29014000
Si       1.69606107       1.52034243       1.52034464      -0.37876000      -0.31256000       0.29014000
2
Lattice="3.09364543 0.03825754 0.02566451 -0.00989069 3.0739159 0.04826316 0.07686077 0.05493367 3.1454057" Properties=species:S:1:pos:R:3:dft_force:R:3 config_type=bcc Minim_Constant_Volume=T dft_virial="-0.01681397 -0.00338347 -0.17345316 -0.00338347 -0.00427996 0.09741789 -0.17345316 0.09741789 -0.04185364" dft_energy=-325.17242013 cutoff=-1.0 nneightol=1.2 pbc="T T T"
Si       0.04967020      -0.01382526       0.06477050       0.19712000      -0.02192000      -0.32606000
Si       1.69606027       1.52034226       1.52034502      -0.19712000       0.02192000       0.32606000
2
Lattice="3.10399908 -0.03747447 0.04501543 -0.00097538 3.11128193 -0.08935673 0.02105851 -0.14464572 3.14820796" Properties=species:S:1:pos:R:3:dft_force:R:3 config_type=bcc Minim_Constant_Volume=T dft_virial="-0.23468427 -0.054794 0.00994129 -0.054794 -0.33303748 0.02200283 0.00994129 0.02200283 -0.26398512" dft_energy=-325.18081668 cutoff=-1.0 nneightol=1.2 pbc="T T T"
Si       0.04967155      -0.01382531       0.06476749       0.17707000       0.01530000      -0.12785000
Si       1.69606106       1.52034302       1.52034525      -0.17707000      -0.01530000       0.12785000
