200
Lattice="45.925318 0.0 0.0 0.0 56.663936 0.0 0.0 0.0 3.859362" Properties=species:S:1:pos:R:3:frac_pos:R:3:dft_force:R:3 config_type=crack_110_1-10 kpoints_mp_grid="1 1 18" task=SinglePoint cut_off_energy="250 eV" spin_polarized=F opt_strategy=memory xc_functional=PW91 elec_energy_tol=1e-07 max_scf_cycles=250 fix_occupancy=F calculate_stress=T finite_basis_corr=automatic smearing_width="0.05 eV" fine_grid_scale=4 mixing_scheme=pulay mix_history_length=20 num_dump_cycles=0 popn_calculate=F castep_file_name=crack.xyz-00000/eval.castep castep_run_time=4568.42 dft_energy=-32561.21209 opt_strategy_bias=3 dft_virial="-30.07202855 -10.05365912 3.39008387 -10.05365912 -240.37212879 1.69930446 3.39008387 1.69930446 -23.41948571" in_file=crack.xyz@0 cutoff=7.5 nneightol=1.3 pbc="T T T"
Si     -12.96265063     -20.43851172       0.00000000      -0.28225500      -0.36069700       0.00000000       0.97933000       0.16217000       0.00248000
Si      -8.69784190     -18.31792058      -0.03122996      -0.18939100      -0.32327300      -0.00809200       0.33028000       0.09304000       0.22585000
Si     -10.07367258     -18.25247374       1.91996699      -0.21934900      -0.32211800       0.49748300      -0.71356000      -0.74565000      -0.13466000
Si     -11.59816351     -20.43851172       1.92968100      -0.25254400      -0.36069700       0.50000000      -0.11974000       0.82857000      -0.00501000
Si     -11.99059535     -15.09430926       0.01013854      -0.26108900      -0.26638300       0.00262700       0.21769000      -0.19439000       0.54173000
Si      -8.50123561     -14.12892579       0.01700435      -0.18511000      -0.24934600       0.00440600       0.48255000      -0.42932000       0.20432000
Si      -9.80308060     -14.21301507       1.97183681      -0.21345700      -0.25083000       0.51092300      -0.67561000       0.42121000      -0.24235000
Si     -11.35870890     -16.23824080       1.98496636      -0.24733000      -0.28657100       0.51432500       0.25529000       0.49081000      -0.59138000
Si     -12.49825382     -12.87070309       0.04398901      -0.27214300      -0.22714100       0.01139800      -0.04573000       0.47302000      -0.91805000
Si      -8.55473861     -10.09989328      -0.02633243      -0.18627500      -0.17824200      -0.00682300      -0.44171000       0.36498000       0.52422000
Si      -9.95376157     -10.15627390       1.95533032      -0.21673800      -0.17923700       0.50664600      -0.23937000       0.35279000      -0.58873000
Si     -11.26855750     -12.21289145       1.87930861      -0.24536700      -0.21553200       0.48694800       0.25614000      -0.47480000       0.97488000
Si     -12.73518253      -8.14226762       0.00078345      -0.27730200      -0.14369400       0.00020300       0.33058000       0.45429000      -0.12374000
Si      -8.57921680      -5.93498066      -0.09482452      -0.18680800      -0.10474000      -0.02457000       0.06426000       0.10412000       1.22016000
Si      -9.92482862      -6.00399733       1.93852666      -0.21610800      -0.10595800       0.50229200      -0.65502000      -0.15524000      -1.06389000
Si     -11.23916530      -8.06191816       1.91466808      -0.24472700      -0.14227600       0.49611000      -0.33639000      -0.36602000       0.12648000
Si     -12.35106317      -5.84227846      -0.06435872      -0.26893800      -0.10310400      -0.01667600      -0.22031000      -0.78998000       0.27971000
Si      -9.29739693      -2.26570748       0.03589207      -0.20244600      -0.03998500       0.00930000      -0.30769000      -0.38670000      -0.22845000
Si     -10.17006982      -3.35932145       1.94215446      -0.22144800      -0.05928500       0.50323200       0.08052000       0.68689000       0.19362000
Si     -12.14086299      -4.54898078       1.89296303      -0.26436100      -0.08028000       0.49048600       0.44547000      -0.05955000      -0.23617000
Si     -12.27661823       3.65454055       0.00007719      -0.26731700       0.06449500       0.00002000       0.14665000      -0.19321000      -0.19416000
Si      -8.47983442       3.76163539      -0.01182123      -0.18464400       0.06638500      -0.00306300      -0.38884000       0.05228000      -0.29525000
Si      -9.92115460       3.93457372       1.88769114      -0.21602800       0.06943700       0.48912000       0.13232000       0.54193000       0.21004000
Si     -11.72597367       2.41926675       1.90491161      -0.25532700       0.04269500       0.49358200      -0.55262000      -0.17668000       0.22261000
Si     -11.95693209       7.17342764       0.00666126      -0.26035600       0.12659600       0.00172600       0.73292000      -0.64985000      -0.34564000
Si      -8.26058695       7.88625996       0.00472000      -0.17987000       0.13917600       0.00122300      -0.01101000      -0.56215000       0.41030000
Si      -9.54837879       8.06174817       1.96942857      -0.20791100       0.14227300       0.51029900      -0.33304000      -0.47546000      -0.45795000
Si     -11.04875893       6.08819994       1.89863629      -0.24058100       0.10744400       0.49195600      -0.00371000       0.68219000       0.33972000
Si     -12.33627522       9.46293398      -0.04425144      -0.26861600       0.16700100      -0.01146600      -0.31595000      -0.01000000      -0.08122000
Si      -8.37673208      11.93081838      -0.00289452      -0.18239900       0.21055400      -0.00075000      -0.86595000       0.27141000      -0.11096000
Si      -9.86393165      12.01332107       1.90972038      -0.21478200       0.21201000       0.49482800       0.47504000      -0.21044000       0.11352000
Si     -11.02533702       9.86813778       1.86787332      -0.24007100       0.17415200       0.48398500      -0.06852000       0.41903000       0.18973000
Si     -12.21742050      14.74344617       0.00239280      -0.26602800       0.26019100       0.00062000      -0.06725000       0.15384000       0.05048000
Si      -8.14412034      16.02229454       0.01131179      -0.17733400       0.28276000       0.00293100      -0.32383000      -0.41076000       0.19246000
Si      -9.51067410      15.93650534       1.96721330      -0.20709000       0.28124600       0.50972500       0.42462000       0.79150000      -0.20529000
Si     -10.98303980      14.16728727       1.93880067      -0.23915000       0.25002300       0.50236300      -0.42585000      -0.65925000      -0.08472000
Si     -11.70572060      17.03085594      -0.01486240      -0.25488600       0.30055900      -0.00385100       0.44255000       0.14140000       0.29920000
Si      -8.86918926      20.43851172       0.00000000      -0.19312200       0.36069700       0.00000000       0.57363000      -1.32980000       0.00171000
Si     -10.23367639      20.43851172       1.92968100      -0.22283300       0.36069700       0.50000000       0.11737000      -0.11257000       0.00426000
Si     -10.84117649      18.13908920       1.95389464      -0.23606100       0.32011700       0.50627400      -0.27336000      -0.66287000      -0.32888000
Si      -7.50470214     -20.43851172       0.00000000      -0.16341100      -0.36069700       0.00000000       0.33435000       0.58317000      -0.01537000
Si      -3.30662290     -18.19473319      -0.05148389      -0.07200000      -0.32109900      -0.01334000       0.59772000      -0.30182000       0.24818000
Si      -4.65292359     -18.36291175       1.89799564      -0.10131500      -0.32406700       0.49179000      -0.54185000       0.15878000      -0.16069000
Si      -6.14021502     -20.43851172       1.92968100      -0.13370000      -0.36069700       0.50000000       0.11573000       0.91316000      -0.00573000
Si      -7.30703957     -16.26118970       0.00676546      -0.15910700      -0.28697600       0.00175300       0.36422000       0.26129000      -0.10377000
Si      -3.30469403     -13.95451419      -0.00784222      -0.07195800      -0.24626800      -0.00203200       0.40822000      -0.23412000      -0.23240000
Si      -4.63983488     -13.97842637       1.90248022      -0.10103000      -0.24669000       0.49295200      -0.14185000      -0.52376000       0.25357000
Si      -5.86700530     -16.15687139       1.92599917      -0.12775100      -0.28513500       0.49904600      -0.30456000      -0.31978000       0.05346000
Si      -7.27603998     -12.06006882      -0.03305544      -0.15843200      -0.21283500      -0.00856500       0.40764000      -0.18899000       0.45643000
Si      -3.32072197      -9.74761359       0.02282427      -0.07230700      -0.17202500       0.00591400       0.02730000      -0.19343000      -0.37229000
Si      -4.68722981      -9.81289044       1.92090481      -0.10206200      -0.17317700       0.49772600      -0.06410000      -0.03745000       0.30064000
Si      -5.90213817     -11.97949270       1.93712571      -0.12851600      -0.21141300       0.50192900      -0.17113000       0.41075000      -0.45341000
Si      -7.36017516      -7.93793747       0.02809616      -0.16026400      -0.14008800       0.00728000       0.02324000      -0.42838000      -0.80023000
Si      -3.42010436      -5.47129967      -0.02431784      -0.07447100      -0.09655700      -0.00630100      -0.54156000       0.05421000      -0.22508000
Si      -4.87827913      -5.57641127       1.87271682      -0.10622200      -0.09841200       0.48524000       0.96511000       0.41139000       0.28847000
Si      -5.99499916      -7.73921704       1.88829320      -0.13053800      -0.13658100       0.48927600      -0.01528000      -0.35159000       0.68469000
Si      -7.53432397      -3.82997210       0.00771101      -0.16405600      -0.06759100       0.00199800       1.30394000       0.78794000       0.02891000
Si      -3.66272781      -1.08845755       0.01667630      -0.07975400      -0.01920900       0.00432100       0.15744000       0.39893000      -0.15683000
Si      -5.05109610      -1.09429393       1.93194645      -0.10998500      -0.01931200       0.50058700       0.06473000      -0.03345000       0.12282000
Si      -6.02439136      -3.41876191       1.95587835      -0.13117800      -0.06033400       0.50678800      -1.34945000      -0.47614000      -0.11214000
Si      -7.34883161       1.68337221      -0.05592216      -0.16001700       0.02970800      -0.01449000      -0.20033000       0.15719000       0.54189000
Si      -3.38556852       3.30957051      -0.03315192      -0.07371900       0.05840700      -0.00859000       0.41863000      -0.26080000       0.98987000
Si      -4.68181062       3.34130231       1.96746415      -0.10194400       0.05896700       0.50979000      -0.97062000       0.33707000      -0.95303000
Si      -6.14871120       1.21725467       1.91291979      -0.13388500       0.02148200       0.49565700       0.36052000      -0.04895000      -0.46700000
Si      -7.15929782       5.72118763      -0.02623208      -0.15589000       0.10096700      -0.00679700       0.10524000       0.32730000       0.11540000
Si      -3.19079924       7.52100423      -0.00087222      -0.06947800       0.13273000      -0.00022600       0.01543000       0.36583000      -0.45005000
Si      -4.56704325       7.64997134       1.88104146      -0.09944500       0.13500600       0.48739700       0.27294000       0.15771000       0.56591000
Si      -5.82668287       5.59159720       1.91357974      -0.12687300       0.09868000       0.49582800       0.10797000      -0.39469000      -0.05176000
Si      -7.11231622       9.89714972       0.04992471      -0.15486700       0.17466400       0.01293600       1.08873000       0.33410000       0.04968000
Si      -3.08576804      11.78570204       0.03908762      -0.06719100       0.20799300       0.01012800       0.28513000       0.24554000      -0.45991000
Si      -4.38145904      11.83097653       1.93358281      -0.09540400       0.20879200       0.50101100      -0.38884000       0.18063000       0.44077000
Si      -5.67003161       9.84683214       1.99183217      -0.12346200       0.17377600       0.51610400      -0.73100000      -0.32969000      -0.21624000
Si      -6.99663035      13.92425565      -0.04568327      -0.15234800       0.24573400      -0.01183700      -0.46866000      -0.19762000       0.31172000
Si      -3.05802915      16.04784998       0.01020029      -0.06658700       0.28321100       0.00264300      -0.44131000      -0.38364000       0.57953000
Si      -4.47514669      16.00438874       2.00736224      -0.09744400       0.28244400       0.52012800       0.01044000      -0.05240000      -0.69885000
Si      -5.70603706      13.85875214       1.90393906      -0.12424600       0.24457800       0.49333000       0.72837000       0.29037000      -0.14568000
Si      -7.22249106      18.15183859      -0.00822044      -0.15726600       0.32034200      -0.00213000       0.25118000       0.92113000       0.15509000
Si      -3.41124077      20.43851172       0.00000000      -0.07427800       0.36069700       0.00000000       0.11814000      -1.29683000      -0.01254000
Si      -4.77572789      20.43851172       1.92968100      -0.10398900       0.36069700       0.50000000       0.13640000      -0.62801000       0.00408000
Si      -5.78447750      18.11410040       1.93853438      -0.12595400       0.31967600       0.50229400      -0.05667000       0.31645000      -0.10751000
Si      -2.04675365     -20.43851172       0.00000000      -0.04456700      -0.36069700       0.00000000       0.08780000       0.77177000      -0.01587000
Si       2.11669791     -18.15557841      -0.09304536       0.04609000      -0.32040800      -0.02410900      -0.47744000      -0.53520000       0.46894000
Si       0.62270139     -18.14917538       1.88975590       0.01355900      -0.32029500       0.48965500       0.42796000      -0.67209000      -0.32139000
Si      -0.68226652     -20.43851172       1.92968100      -0.01485600      -0.36069700       0.50000000      -0.03311000       1.12425000      -0.02907000
Si      -2.00615567     -16.04750999      -0.02417118      -0.04368300      -0.28320500      -0.00626300      -0.25595000      -0.09564000      -0.42700000
Si       2.00422680     -13.87405140      -0.07428886       0.04364100      -0.24484800      -0.01924900      -0.18983000       0.16859000       1.02089000
Si       0.62045105     -13.89858689       1.95365922       0.01351000      -0.24528100       0.50621300      -0.22550000      -0.33427000      -0.97285000
Si      -0.61521556     -16.08842136       1.85841402      -0.01339600      -0.28392700       0.48153400      -0.01546000       0.48990000       0.53437000
Si      -2.04298777     -11.87160457      -0.02225308      -0.04448500      -0.20950900      -0.00576600      -0.34131000       0.26311000       0.76452000
Si       1.90911547      -9.52668090      -0.02938518       0.04157000      -0.16812600      -0.00761400      -0.60106000       0.00006000       0.82489000
Si       0.46219240      -9.64595849       2.00496172       0.01006400      -0.17023100       0.51950600       0.48787000      -0.04051000      -0.92215000
Si      -0.70219811     -11.86061176       1.97306795      -0.01529000      -0.20931500       0.51124200       0.37005000       0.33422000      -0.72684000
Si      -2.17286457      -7.58758435      -0.00376674      -0.04731300      -0.13390500      -0.00097600       0.17757000       0.09740000      -0.22704000
Si       1.68991393      -5.31235733      -0.01194858       0.03679700      -0.09375200      -0.00309600       0.06963000      -0.13392000       0.34621000
Si       0.29952492      -5.34085929       1.96033205       0.00652200      -0.09425500       0.50794200       0.07808000      -0.14691000      -0.41618000
Si      -0.78849178      -7.57364502       1.90205955      -0.01716900      -0.13365900       0.49284300      -0.28041000       0.22735000       0.36261000
Si      -2.32460182      -3.14416848      -0.04445985      -0.05061700      -0.05548800      -0.01152000      -0.37511000      -0.64364000       0.94837000
Si       1.68178515      -1.13225877      -0.06386858       0.03662000      -0.01998200      -0.01654900       0.19611000       0.50195000       0.51102000
Si       0.32460015      -1.07202501       1.90248794       0.00706800      -0.01891900       0.49295400      -0.40211000       0.09337000      -0.29944000
Si      -0.96355910      -3.19454272       1.96894615      -0.02098100      -0.05637700       0.51017400       0.35228000       0.13537000      -0.95431000
Si      -2.37208860       1.10160358       0.06937203      -0.05165100       0.01944100       0.01797500       0.25684000      -0.26663000      -0.55039000
Si       1.87007895       3.25092334       0.00779205       0.04072000       0.05737200       0.00201900      -0.84362000      -0.62668000      -0.15498000
Si       0.43077948       3.15419800       1.92669385       0.00938000       0.05566500       0.49922600       0.17484000       0.59335000       0.14399000
Si      -0.97494858       1.08868420       1.95488649      -0.02122900       0.01921300       0.50653100       0.38376000      -0.24753000       0.35905000
Si      -2.03609897       5.34573239       0.04018368      -0.04433500       0.09434100       0.01041200      -0.36581000       0.49289000      -0.12027000
Si       1.95251489       7.45136425      -0.06410400       0.04251500       0.13150100      -0.01661000      -0.02363000       0.53904000      -0.12613000
Si       0.60538754       7.50615827       1.84389124       0.01318200       0.13246800       0.47777100      -0.24733000       0.21892000       0.44496000
Si      -0.71666459       5.42217204       1.96450016      -0.01560500       0.09569000       0.50902200       0.52569000      -0.58320000      -0.05147000
Si      -1.91499391       9.70228244       0.00850989      -0.04169800       0.17122500       0.00220500       0.35236000      -0.48919000       0.55979000
Si       2.05924533      11.79658152       0.05158037       0.04483900       0.20818500       0.01336500       1.15658000      -0.17234000      -0.88462000
Si       0.79009917      11.79080179       1.91919125       0.01720400       0.20808300       0.49728200      -0.89881000       0.06914000       0.87949000
Si      -0.50655626       9.71378522       1.99664093      -0.01103000       0.17142800       0.51735000      -0.25283000      -0.25722000      -0.72431000
Si      -1.85203030      13.87291812       0.05530852      -0.04032700       0.24482800       0.01433100      -0.01282000       0.23474000      -0.64914000
Si       2.15160115      15.97107035      -0.07007444       0.04685000       0.28185600      -0.01815700      -0.09827000       0.88577000       1.15643000
Si       0.72708963      16.03674385       1.98997581       0.01583200       0.28301500       0.51562300       0.06305000      -0.21866000      -1.16845000
Si      -0.49135498      13.89445042       1.92389196      -0.01069900       0.24520800       0.49850000       0.20862000       0.05910000       0.65399000
Si      -1.97988638      18.18017055      -0.02074793      -0.04311100       0.32084200      -0.00537600       0.60482000       0.63833000       0.19392000
Si       2.04675365      20.43851172       0.00000000       0.04456700       0.36069700       0.00000000       0.06279000      -1.01112000      -0.00059000
Si       0.68226652      20.43851172       1.92968100       0.01485600       0.36069700       0.50000000       0.07205000      -0.86577000      -0.00705000
Si      -0.47698035      18.15200858       1.93202749      -0.01038600       0.32034500       0.50060800      -0.46924000       0.48623000      -0.13569000
Si       3.41124077     -20.43851172       0.00000000       0.07427800      -0.36069700       0.00000000      -0.06609000       1.13059000      -0.03067000
Si       7.25509804     -18.09115151      -0.00774188       0.15797600      -0.31927100      -0.00200600       0.09759000      -0.21056000      -0.06732000
Si       5.83462795     -18.10577081       1.90780614       0.12704600      -0.31952900       0.49433200      -0.04032000      -0.02875000       0.11040000
Si       4.77572789     -20.43851172       1.92968100       0.10398900      -0.36069700       0.50000000      -0.06841000       0.84018000      -0.00993000
Si       3.21872184     -15.99962897       0.05778623       0.07008600      -0.28236000       0.01497300       0.18877000       0.32123000      -0.74331000
Si       7.15318976     -13.66603809       0.12398200       0.15575700      -0.24117700       0.03212500       0.20822000      -0.06260000      -1.39591000
Si       5.80179135     -13.72944504       1.94111243       0.12633100      -0.24229600       0.50296200      -0.52579000       0.48801000       1.11537000
Si       4.59009776     -15.83842007       1.92159178       0.09994700      -0.27951500       0.49790400       0.27420000      -0.61969000       0.59215000
Si       3.05945283     -11.65435504       0.00234649       0.06661800      -0.20567500       0.00060800       0.85724000      -0.01268000      -0.38536000
Si       7.18786337      -9.50684853      -0.00706649       0.15651200      -0.16777600      -0.00183100      -0.41488000       0.43982000      -0.50485000
Si       5.79219296      -9.45953414       1.86944408       0.12612200      -0.16694100       0.48439200      -0.17897000      -0.51023000       0.64586000
Si       4.49769602     -11.59531122       1.89509726       0.09793500      -0.20463300       0.49103900      -0.13445000      -0.13959000       0.33643000
Si       3.11093512      -7.34313613      -0.05683296       0.06773900      -0.12959100      -0.01472600      -0.51203000      -0.41116000       1.37039000
Si       6.99819181      -5.31292397      -0.04746243       0.15238200      -0.09376200      -0.01229800       0.04129000       0.67230000       0.83429000
Si       5.63972090      -5.25286020       1.95669267       0.12280200      -0.09270200       0.50699900      -0.09918000       0.12727000      -0.80231000
Si       4.48667394      -7.40342656       1.99966667       0.09769500      -0.13065500       0.51813400       0.12018000       0.31386000      -1.44788000
Si       2.89894385      -3.23160093       0.00922002       0.06312300      -0.05703100       0.00238900       0.82990000       0.29357000      -0.29444000
Si       6.85017451      -1.03530677      -0.01968275       0.14915900      -0.01827100      -0.00510000       0.08699000      -0.50481000       0.13764000
Si       5.51168111      -1.06386540       1.92612653       0.12001400      -0.01877500       0.49907900       0.13946000       0.53249000      -0.16393000
Si       4.36671701      -3.12626268       1.91161919       0.09508300      -0.05517200       0.49532000      -0.93042000      -0.77415000       0.28843000
Si       2.97945093       1.05984226       0.00598587       0.06487600       0.01870400       0.00155100      -0.04720000      -0.04134000      -0.01255000
Si       7.05068445       3.19709260      -0.02535987       0.15352500       0.05642200      -0.00657100      -0.83587000       0.11901000       0.28528000
Si       5.62254483       3.21698164       1.92837268       0.12242800       0.05677300       0.49966100       0.37426000       0.28499000      -0.22273000
Si       4.34182549       1.11157643       1.93861928       0.09454100       0.01961700       0.50231600       0.06735000      -0.25151000      -0.03932000
Si       3.04209306       5.35377867      -0.04571800       0.06624000       0.09448300      -0.01184600       1.07748000       0.01539000       0.28404000
Si       7.31953126       7.34919917      -0.02525181       0.15937900       0.12969800      -0.00654300      -0.93695000       0.94888000       0.09114000
Si       5.84523670       7.41759254       1.91101327       0.12727700       0.13090500       0.49516300       0.64695000       0.48135000      -0.04472000
Si       4.49645603       5.42500523       1.91086661       0.09790800       0.09574000       0.49512500      -0.57318000      -0.68162000      -0.20439000
Si       3.29876967       9.58119161       0.04692598       0.07182900       0.16908800       0.01215900      -0.31649000       0.20786000      -0.79520000
Si       7.27902513      11.75142036       0.00951333       0.15849700       0.20738800       0.00246500       0.21218000      -0.28999000      -0.39989000
Si       5.90236779      11.71974522       1.90026108       0.12852100       0.20682900       0.49237700       0.33279000       0.10200000       0.39834000
Si       4.68084619       9.64697844       1.90470707       0.10192300       0.17024900       0.49352900      -0.10259000      -0.63678000       0.74840000
Si       3.35590076      13.95406088      -0.00648373       0.07307300       0.24626000      -0.00168000       0.62779000      -0.75485000       0.28687000
Si       7.44770882      16.08298162       0.02410558       0.16217000       0.28383100       0.00624600      -0.12873000      -0.22572000       0.22680000
Si       6.01580333      15.99328261       1.97999936       0.13099100       0.28224800       0.51303800       0.35485000       0.66430000      -0.27241000
Si       4.81462664      13.89887021       1.95505631       0.10483600       0.24528600       0.50657500      -0.78232000      -0.06682000      -0.29449000
Si       3.39649874      18.23626785      -0.02505498       0.07395700       0.32183200      -0.00649200      -0.46588000      -0.00273000       0.04406000
Si       7.50470214      20.43851172       0.00000000       0.16341100       0.36069700       0.00000000      -0.03080000      -1.17074000      -0.01150000
Si       6.14021502      20.43851172       1.92968100       0.13370000       0.36069700       0.50000000      -0.16968000      -0.74780000      -0.00388000
Si       4.77733528      18.22793825       1.91081258       0.10402400       0.32168500       0.49511100       0.48304000      -0.06832000       0.00060000
Si       8.86918926     -20.43851172       0.00000000       0.19312200      -0.36069700       0.00000000      -0.62695000       1.28451000       0.00640000
Si      11.53823097     -17.03890222      -0.02699624       0.25123900      -0.30070100      -0.00699500      -0.00043000      -0.16718000       0.03412000
Si      10.75561762     -18.12390327       1.90874396       0.23419800      -0.31984900       0.49457500       0.33933000       0.22619000      -0.03305000
Si      10.23367639     -20.43851172       1.92968100       0.22283300      -0.36069700       0.50000000      -0.13067000       0.24156000      -0.01279000
Si       8.23923168     -15.83128042       0.04144569       0.17940500      -0.27938900       0.01073900      -0.23540000      -0.24848000      -0.16965000
Si      11.91899778     -14.76186195       0.03593838       0.25953000      -0.26051600       0.00931200       0.77765000      -0.26194000      -0.46888000
Si      11.02515332     -13.96981345       1.93658540       0.24006700      -0.24653800       0.50178900      -0.65461000       0.82782000       0.35338000
Si       9.60477508     -15.89820052       1.95640322       0.20913900      -0.28057000       0.50692400      -0.52017000      -0.19690000       0.21870000
Si       8.42013150     -11.54635357      -0.05253364       0.18334400      -0.20376900      -0.01361200       0.24038000      -0.71098000      -0.14724000
Si      11.19030076     -10.40769178       0.07201955       0.24366300      -0.18367400       0.01866100       0.40830000      -0.13789000      -0.43969000
Si      11.02974585      -9.05234710       1.91651672       0.24016700      -0.15975500       0.49658900      -0.13951000      -0.35998000       0.59864000
Si       9.88818022     -11.76037326       1.83597955       0.21531000      -0.20754600       0.47572100       0.01440000       0.03609000       0.19965000
Si       8.25737218      -7.33004676       0.03059316       0.17980000      -0.12936000       0.00792700       0.39588000      -0.09629000      -1.12695000
Si      11.83867440      -4.01135336       0.05810655       0.25778100      -0.07079200       0.01505600      -0.28082000      -0.18324000      -0.67862000
Si      10.91957101      -5.12831286       1.88772974       0.23776800      -0.09050400       0.48913000       0.15916000       0.10243000       0.70100000
Si       9.62305336      -7.16192486       1.85629909       0.20953700      -0.12639300       0.48098600       0.11415000       0.33403000       1.11915000
Si       8.20469584      -3.11390994      -0.03560647       0.17865300      -0.05495400      -0.00922600       0.02763000       0.01802000       0.71324000
Si      12.12529431      -0.36882556       0.02448379       0.26402200      -0.00650900       0.00634400      -0.18952000      -0.83775000      -0.33380000
Si      10.78321874      -0.91274268       1.91160375       0.23479900      -0.01610800       0.49531600       0.68899000       0.27541000       0.34094000
Si       9.63324878      -3.01457806       1.97214556       0.20975900      -0.05320100       0.51100300      -0.06324000      -0.02221000      -0.74760000
Si       8.02953667       1.02063082       0.00399058       0.17483900       0.01801200       0.00103400       0.60493000       0.30167000      -0.09986000
Si      11.66296413       1.84548773       0.02566476       0.25395500       0.03256900       0.00665000      -0.23724000       0.33000000      -0.49872000
Si      10.81766273       2.83999647       1.90735073       0.23554900       0.05012000       0.49421400       0.47442000       1.39059000       0.53101000
Si       9.41142949       1.00159173       1.92569814       0.20492900       0.01767600       0.49896800      -1.03612000      -0.69449000       0.07801000
Si       8.35459607       5.26135979       0.09399862       0.18191700       0.09285200       0.02435600       0.70423000      -0.84399000      -0.85333000
Si      12.22968256       7.33055674       0.05088955       0.26629500       0.12936900       0.01318600       0.54517000       0.20832000      -0.02006000
Si      10.94216627       7.25525037       1.97952466       0.23826000       0.12804000       0.51291500       0.19703000      -0.04451000       0.00019000