192
Lattice="45.62436 0.0 0.0 0.0 55.450527 0.0 0.0 0.0 3.859365" Properties=species:S:1:pos:R:3:frac_pos:R:3:dft_force:R:3 config_type=crack_111_1-10 kpoints_mp_grid="1 1 18" task=SinglePoint cut_off_energy="250 eV" spin_polarized=F opt_strategy=memory xc_functional=PW91 elec_energy_tol=1e-07 max_scf_cycles=250 fix_occupancy=F calculate_stress=T finite_basis_corr=automatic smearing_width="0.05 eV" fine_grid_scale=4 mixing_scheme=pulay mix_history_length=20 num_dump_cycles=0 popn_calculate=F castep_file_name=crack.xyz-00007/eval.castep castep_run_time=5433.12 dft_energy=-31254.86577 opt_strategy_bias=3 dft_virial="-5.05733965 1.90796668 6.30703375 1.90796668 -250.00232049 -4.35610446 6.30703375 -4.35610446 -59.96033172" in_file=crack.xyz@7 cutoff=7.5 nneightol=1.3 pbc="T T T"
Si     -12.81218715     -19.01171224       0.00000000      -0.28081900      -0.34285900       0.00000000       0.95068000       0.04696000       0.00279000
Si     -12.90430273     -16.64048135       0.01898808      -0.28283800      -0.30009600       0.00492000       0.50618000      -0.17824000      -0.00601000
Si     -10.53288537     -15.75349472       0.00143568      -0.23086100      -0.28410000       0.00037200      -0.42978000      -0.25334000       0.48938000
Si     -10.38095626     -13.32315357      -0.02872911      -0.22753100      -0.24027100      -0.00744400       0.04884000       0.08426000       0.27749000
Si     -11.35257263     -12.44858786       1.92363488      -0.24882700      -0.22449900       0.49843300      -0.10611000       0.55708000      -0.29434000
Si     -11.69808590     -19.79955332       1.92968250      -0.25640000      -0.35706700       0.50000000      -0.87843000       0.97405000      -0.01044000
Si      -9.46988341     -19.01171224       1.92968250      -0.20756200      -0.34285900       0.50000000       0.44952000       0.22527000      -0.00378000
Si      -9.39784255     -16.52791678       1.98514158      -0.20598300      -0.29806600       0.51437000      -0.23722000      -0.18935000      -0.60218000
Si      -8.12382792     -12.36108693      -0.00661109      -0.17805900      -0.22292100      -0.00171300      -0.50764000       0.37711000       0.21613000
Si      -8.35578216     -19.79955332       0.00000000      -0.18314300      -0.35706700       0.00000000       0.06576000       0.51699000       0.03181000
Si      -7.22242744     -15.57893646       1.86821439      -0.15830200      -0.28095200       0.48407300       0.47447000      -0.16303000       0.19971000
Si      -7.07451326     -13.13933508       1.93956633      -0.15506000      -0.23695600       0.50256100       0.45152000      -0.21462000      -0.23244000
Si     -11.85193125      -8.77044350       0.07141755      -0.25977200      -0.15816700       0.01850500      -0.49474000      -0.03093000      -1.23663000
Si     -12.89887343      -6.79130329       0.07494115      -0.28271900      -0.12247500       0.01941800       0.09265000       0.50726000      -0.01480000
Si     -10.46545257      -6.31797760       0.01867933      -0.22938300      -0.11393900       0.00484000      -0.52262000      -0.06433000      -0.21187000
Si     -10.56368182      -3.95345622       0.05403883      -0.23153600      -0.07129700       0.01400200      -0.41468000      -0.76661000      -0.57910000
Si     -10.32392581      -2.69816719       1.93244966      -0.22628100      -0.04865900       0.50071700       0.11322000       0.83276000       0.51259000
Si     -11.41635548      -9.98458824       1.89360516      -0.25022500      -0.18006300       0.49065200       0.79337000      -0.82912000       1.34451000
Si      -9.11223405      -9.09926513       1.93944669      -0.19972300      -0.16409700       0.50253000      -0.43691000      -0.43401000      -0.13123000
Si      -9.19613725      -6.77716341       1.92431412      -0.20156200      -0.12222000       0.49860900      -0.23123000       0.31484000       0.25551000
Si      -8.53161845      -2.73554085       0.00287909      -0.18699700      -0.04933300       0.00074600       0.50211000       0.25339000       0.16030000
Si      -8.10712940      -9.91072814       0.00215353      -0.17769300      -0.17873100       0.00055800       0.46267000      -0.36821000       0.04480000
Si      -7.15380840      -5.59562358       1.96383016      -0.15679800      -0.10091200       0.50884800       0.81320000       0.02322000      -0.47471000
Si      -7.17068941      -3.07922321       1.94564483      -0.15716800      -0.05553100       0.50413600      -0.79163000      -0.48254000      -0.16185000
Si     -11.55888598       3.70659048      -0.02076338      -0.25334900       0.06684500      -0.00538000       0.48406000       0.08338000      -0.10705000
Si     -12.71797285       5.76923918       0.00294084      -0.27875400       0.10404300       0.00076200       0.08487000      -0.33010000       0.00761000
Si     -10.52312176       6.75559315       0.04065841      -0.23064700       0.12183100       0.01053500       0.43516000      -0.64659000      -0.17883000
Si     -10.33893622       9.16358774       0.02726641      -0.22661000       0.16525700       0.00706500      -1.37685000      -0.38764000       0.02116000
Si     -11.44975251       9.92542253       1.95922208      -0.25095700       0.17899600       0.50765400       0.17276000      -0.18787000      -0.04077000
Si     -10.70790042       2.52371984       1.89862619      -0.23469700       0.04551300       0.49195300      -1.78182000      -0.22626000       0.07945000
Si      -8.84282221       3.75444428       1.99138603      -0.19381800       0.06770800       0.51598800       1.53721000      -0.39920000      -0.15497000
Si      -9.33091161       5.96353783       1.95064271      -0.20451600       0.10754700       0.50543100      -0.40386000       1.29433000       0.13698000
Si      -8.22835333      10.02800601       0.01469260      -0.18035000       0.18084600       0.00380700       1.29838000      -0.46338000      -0.13091000
Si      -7.39684937       3.42894969       0.03412451      -0.16212500       0.06183800       0.00884200      -0.74780000       1.17743000       0.14647000
Si      -7.15052345       6.73934615       1.91228448      -0.15672600       0.12153800       0.49549200      -0.01380000      -0.29245000      -0.03035000
Si      -7.10088414       9.07719582       1.92859416      -0.15563800       0.16369900       0.49971800      -0.19146000       0.59753000       0.11539000
Si     -12.05628275      13.43100485      -0.00273243      -0.26425100       0.24221600      -0.00070800       0.25817000      -0.31570000       0.20048000
Si     -12.89686596      15.51051051      -0.04694532      -0.28267500       0.27971800      -0.01216400       0.13783000       0.73540000       0.01973000
Si     -10.67089906      16.56146435      -0.00015437      -0.23388600       0.29867100      -0.00004000       0.65173000      -1.03969000      -0.21571000
Si     -10.58398466      19.01171224       0.00000000      -0.23198100       0.34285900       0.00000000       0.24220000      -0.60710000      -0.02874000
Si     -11.69808590      19.79955332       1.92968250      -0.25640000       0.35706700       0.50000000      -0.17794000       0.17085000       0.01285000
Si     -11.44090139      12.25029678       1.94711911      -0.25076300       0.22092300       0.50451800      -0.10379000       0.24388000      -0.19656000
Si      -9.27935608      13.32276542       1.91770689      -0.20338600       0.24026400       0.49689700       0.33961000      -0.50462000      -0.20924000
Si      -9.35960933      15.69754514       1.88664672      -0.20514500       0.28309100       0.48884900      -1.07035000       0.69382000       0.26758000
Si      -8.35578216      19.79955332       0.00000000      -0.18314300       0.35706700       0.00000000       0.22711000      -0.47246000       0.01278000
Si      -8.14317265      12.38770318      -0.03930763      -0.17848300       0.22340100      -0.01018500      -0.63133000       0.52741000       0.26133000
Si      -7.14240231      16.43132196       1.91631752      -0.15654800       0.29632400       0.49653700      -0.14311000       0.55425000      -0.71558000
Si      -7.24168092      18.98542869       1.92968250      -0.15872400       0.34238500       0.50000000      -0.18801000      -0.07452000      -0.01323000
Si      -6.12757967     -18.93413695       0.00000000      -0.13430500      -0.34146000       0.00000000       0.04785000      -0.05505000      -0.02010000
Si      -6.08806897     -16.41052802      -0.05407742      -0.13343900      -0.29594900      -0.01401200       0.23290000      -0.06353000      -0.08210000
Si      -3.80438726     -15.52781108      -0.06566710      -0.08338500      -0.28003000      -0.01701500      -0.79524000       0.57418000       0.68276000
Si      -3.79060870     -12.94719900      -0.03644012      -0.08308300      -0.23349100      -0.00944200       0.49366000      -0.79119000       0.77444000
Si      -4.82454795     -12.17211153       1.95457154      -0.10574500      -0.21951300       0.50644900      -0.76588000       0.36105000      -0.80917000
Si      -5.01347842     -19.79955332       1.92968250      -0.10988600      -0.35706700       0.50000000       0.01751000       0.92999000       0.00224000
Si      -2.78527593     -18.91960891       1.92968250      -0.06104800      -0.34119800       0.50000000       0.01775000       0.02961000      -0.02109000
Si      -2.74809208     -16.29252929       1.91722447      -0.06023300      -0.29382100       0.49677200       0.63613000      -0.67428000      -0.64284000
Si      -1.62158100     -11.96827540       0.01700050      -0.03554200      -0.21583700       0.00440500       0.18833000      -0.53832000      -0.18363000
Si      -1.67117468     -19.79955332       0.00000000      -0.03662900      -0.35706700       0.00000000      -0.04956000       1.09842000      -0.00703000
Si      -0.52440639     -15.39345445       1.89632987      -0.01149400      -0.27760700       0.49135800       0.08252000       0.03151000       0.58783000
Si      -0.51249844     -12.85315491       1.92930428      -0.01123300      -0.23179500       0.49990200      -0.13946000      -0.04290000       0.13213000
Si      -5.93262678      -8.89781336      -0.02429084      -0.13003200      -0.16046400      -0.00629400      -0.00461000       0.12455000       0.07628000
Si      -5.92514438      -6.38595994      -0.02371580      -0.12986800      -0.11516500      -0.00614500      -1.40263000      -0.27129000       0.46351000
Si      -3.91867628      -5.29269735      -0.05100151      -0.08589000      -0.09544900      -0.01321500       1.12072000       0.11889000      -0.00833000
Si      -4.03141407      -2.76775760      -0.04808383      -0.08836100      -0.04991400      -0.01245900      -0.44148000       0.82889000       0.08116000
Si      -5.20948067      -1.80530281       1.88931740      -0.11418200      -0.03255700       0.48954100       1.03922000      -0.26769000      -0.00431000
Si      -4.81592494      -9.69624550       1.91269358      -0.10555600      -0.17486300       0.49559800      -0.10828000       0.07870000      -0.06038000
Si      -2.69188286      -8.60569999       1.88024403      -0.05900100      -0.15519600       0.48719000       0.09069000      -0.60110000       0.70448000
Si      -2.72870172      -6.15096061       1.87688639      -0.05980800      -0.11092700       0.48632000      -0.48047000       0.57971000       0.07881000
Si      -1.96421995      -1.46727639      -0.00958666      -0.04305200      -0.02646100      -0.00248400       0.18205000      -0.52100000       0.08034000
Si      -1.61861542      -9.56821024       0.03244182      -0.03547700      -0.17255400       0.00840600       0.24546000       1.15066000      -0.71455000
Si      -0.62938805      -5.03557326       1.95110198      -0.01379500      -0.09081200       0.50555000      -0.44486000       0.46157000      -0.17808000
Si      -0.78232090      -2.33818237       1.93019965      -0.01714700      -0.04216700       0.50013400      -0.89098000      -0.37619000      -0.05888000
Si      -6.50982056       1.35997963      -0.02846282      -0.14268300       0.02452600      -0.00737500       0.81714000      -1.01180000      -0.11276000
Si      -6.29757604       5.61636208      -0.02267763      -0.13803100       0.10128600      -0.00587600      -0.17455000       0.51427000       0.07146000
Si      -3.99546208       6.00562478       0.00962526      -0.08757300       0.10830600       0.00249400      -0.01075000      -0.19985000      -0.37497000
Si      -3.86278644       8.63292620      -0.05750840      -0.08466500       0.15568700      -0.01490100       0.34535000      -0.51807000       0.83902000
Si      -4.80114265       9.60924363       1.94167741      -0.10523200       0.17329400       0.50310800      -0.70123000       0.70069000      -0.70975000
Si      -5.24392707       0.78895010       1.88330837      -0.11493700       0.01422800       0.48798400      -0.66758000      -0.24368000       0.15188000
Si      -3.13635538       2.07129899       1.91165155      -0.06874300       0.03735400       0.49532800      -0.12450000      -0.02255000       0.18470000
Si      -3.09506533       4.86262306       1.90267852      -0.06783800       0.08769300       0.49300300       0.59346000       0.27371000       0.32214000
Si      -1.62701030       9.40296767      -0.00233106      -0.03566100       0.16957400      -0.00060400      -0.18611000      -0.32879000      -0.31908000
Si      -2.05610741       1.11860348       0.00630620      -0.04506600       0.02017300       0.00163400      -0.04891000       0.14782000      -0.16867000
Si      -0.76242868       5.67020454       1.91152033      -0.01671100       0.10225700       0.49529400      -0.62280000      -0.10848000      -0.23775000
Si      -0.65343208       8.36166222       1.88494088      -0.01432200       0.15079500       0.48840700      -0.03083000      -0.15253000       0.41962000
Si      -5.92030820      13.09802443       0.01707383      -0.12976200       0.23621100       0.00442400       0.02217000       0.19748000       0.17725000
Si      -6.08793210      15.61542291      -0.07650419      -0.13343600       0.28161000      -0.01982300       1.21087000      -0.37164000       0.86420000
Si      -3.71154169      16.36566854       0.00387094      -0.08135000       0.29514000       0.00100300      -0.84398000      -0.02570000      -0.12053000
Si      -3.89937718      18.91960891       0.00000000      -0.08546700       0.34119800       0.00000000      -0.02519000       0.04540000       0.00105000
Si      -5.01347842      19.79955332       1.92968250      -0.10988600       0.35706700       0.50000000       0.11478000      -0.86726000      -0.00190000
Si      -4.87354851      12.15647448       1.97863469      -0.10681900       0.21923100       0.51268400       0.21558000      -0.19276000      -0.34366000
Si      -2.65862271      12.96078438       1.90008889      -0.05827200       0.23373600       0.49233200      -0.03545000      -0.51562000       0.84390000
Si      -2.67016567      15.41751998       1.93034631      -0.05852500       0.27804100       0.50017200      -0.37793000       0.04790000       0.00496000
Si      -1.67117468      19.79955332       0.00000000      -0.03662900       0.35706700       0.00000000       0.10327000      -0.96714000       0.00302000
Si      -1.63691079      11.89685512       0.07201961      -0.03587800       0.21454900       0.01866100      -0.23381000       0.40263000      -0.85535000
Si      -0.52655074      16.25981348       1.92449551      -0.01154100       0.29323100       0.49865600       0.96880000       0.03512000       0.05751000
Si      -0.55707344      18.91960891       1.92968250      -0.01221000       0.34119800       0.50000000       0.07869000      -0.26330000       0.00177000
Si       0.55707344     -18.91960891       0.00000000       0.01221000      -0.34119800       0.00000000       0.03883000       0.09092000      -0.01490000
Si       0.62952492     -16.23951859       0.03206746       0.01379800      -0.29286500       0.00830900       0.11134000      -0.06411000      -0.56105000
Si       2.86539231     -15.26442107       0.00060206       0.06280400      -0.27528000       0.00015600      -0.42007000      -0.35839000       0.07162000
Si       2.75794694     -12.74258656       0.04064683       0.06044900      -0.22980100       0.01053200       0.19657000       0.05011000      -0.30386000
Si       1.64019574     -11.86358480       1.94117569       0.03595000      -0.21394900       0.50297800       0.21808000       0.09076000       0.15788000
Si       1.67117468     -19.79955332       1.92968250       0.03662900      -0.35706700       0.50000000      -0.00392000       1.05826000       0.03160000
Si       3.89937718     -18.91960891       1.92968250       0.08546700      -0.34119800       0.50000000       0.02863000       0.23995000       0.00203000
Si       3.90727019     -16.24911153       1.93234160       0.08564000      -0.29303800       0.50068900       0.20191000       0.31761000      -0.03395000
Si       4.97784580     -11.80458544       0.00619042       0.10910500      -0.21288500       0.00160400      -0.17734000      -0.30320000       0.28223000
Si       5.01347842     -19.79955332       0.00000000       0.10988600      -0.35706700       0.00000000       0.03175000       0.92611000      -0.01564000
Si       6.13232460     -15.23225977       1.90883035       0.13440900      -0.27470000       0.49459700      -0.26258000      -0.55374000       0.18809000
Si       6.10490436     -12.73953678       1.96777443       0.13380800      -0.22974600       0.50987000      -0.85951000       0.22256000      -0.32825000
Si       0.54699045      -8.40840701      -0.01719347       0.01198900      -0.15163800      -0.00445500      -0.45803000      -0.27945000      -0.44216000
Si       0.42540153      -5.86716481       0.01206052       0.00932400      -0.10580900       0.00312500       0.51870000      -0.11578000       0.13109000
Si       2.59219364      -4.82924185       0.01737100       0.05681600      -0.08709100       0.00450100      -0.30366000      -0.18789000      -1.07781000
Si       2.46672665      -2.32121451      -0.01889159       0.05406600      -0.04186100      -0.00489500      -0.32346000       0.26772000       0.50965000
Si       1.30992100      -1.40705712       1.97185764       0.02871100      -0.02537500       0.51092800       0.91818000       0.30027000      -0.60326000
Si       1.62463784      -9.29894248       1.85900981       0.03560900      -0.16769800       0.48168800      -0.65926000      -0.42015000       0.60630000
Si       3.71806597      -8.40020034       1.95448664       0.08149300      -0.15149000       0.50642700       0.96512000       0.53578000      -0.22125000
Si       3.66842667      -5.73757693       1.84358007       0.08040500      -0.10347200       0.47769000       0.41654000      -0.20967000       1.20874000
Si       4.62799821      -1.37256689      -0.06695226       0.10143700      -0.02475300      -0.01734800       0.57366000      -0.09626000       0.64754000
Si       4.83558904      -9.31147430       0.01772220       0.10598700      -0.16792400       0.00459200      -0.04611000       0.16326000       0.06811000
Si       5.88193812      -4.79369806       2.00030888       0.12892100      -0.08645000       0.51830000      -0.10215000      -0.69367000      -0.74286000
Si       5.79762430      -2.32005005       1.93719668       0.12707300      -0.04184000       0.50194700      -0.47084000       0.57923000      -0.51423000
Si       0.13180878       2.12286798       0.08730656       0.00288900       0.03828400       0.02262200       0.19403000      -0.09942000      -1.16069000
Si       0.23710980       4.66200306      -0.03777161       0.00519700       0.08407500      -0.00978700       0.19878000       0.40365000       0.34998000
Si       2.47484778       5.60499472      -0.02481572       0.05424400       0.10108100      -0.00643000      -0.26814000      -0.27400000       0.21620000
Si       2.57645323       8.09350347      -0.01834356       0.05647100       0.14595900      -0.00475300      -0.44695000       0.73401000      -0.04671000
Si       1.55323571       9.17434514       1.90541867       0.03404400       0.16545100       0.49371300       0.25914000      -0.32942000       0.02201000
Si       1.25352929       1.20277738       1.89951384       0.02747500       0.02169100       0.49218300       0.58667000      -0.05745000       1.14473000
Si       3.56353626       2.13767327       1.97294598       0.07810600       0.03855100       0.51121000      -0.44622000      -0.10340000      -0.15215000
Si       3.53515791       4.71795264       1.92811174       0.07748400       0.08508400       0.49959300       0.61153000      -0.13948000      -0.16945000
Si       4.72399186       9.07275978      -0.02020378       0.10354100       0.16361900      -0.00523500       0.50498000      -0.37556000       0.49924000
Si       4.69789472       1.21780447       0.03665239       0.10296900       0.02196200       0.00949700      -1.84621000      -0.68341000      -0.04325000
Si       5.81163098       5.61109428       1.96146051       0.12738000       0.10119100       0.50823400      -0.49954000      -0.35478000       0.23824000
Si       5.83777374       8.12111783       1.97606435       0.12795300       0.14645700       0.51201800      -0.35660000       0.14157000      -0.55022000
Si       0.51747149      12.79731623       0.05447880       0.01134200       0.23078800       0.01411600       0.65767000      -0.77441000      -0.47916000
Si       0.60306279      15.22804553       0.00541469       0.01321800       0.27462400       0.00140300      -0.10183000       0.95485000       0.00461000
Si       2.81023245      16.24722621       0.05133727       0.06159500       0.29300400       0.01330200       0.00325000      -0.31892000      -0.55549000
Si       2.78527593      18.91960891       0.00000000       0.06104800       0.34119800       0.00000000       0.02185000      -0.25065000       0.01532000
Si       1.67117468      19.79955332       1.92968250       0.03662900       0.35706700       0.50000000       0.05517000      -0.88406000       0.01084000
Si       1.60574935      11.75517902       1.91549161       0.03519500       0.21199400       0.49632300      -0.27081000       0.17913000       0.44808000
Si       3.82313887      12.57656768       1.88900479       0.08379600       0.22680700       0.48946000      -0.05922000       0.36622000       0.06581000
Si       3.92802927      15.23969014       1.89878828       0.08609500       0.27483400       0.49199500      -0.05417000       0.00740000       0.52712000
Si       5.01347842      19.79955332       0.00000000       0.10988600       0.35706700       0.00000000       0.22705000      -0.75931000      -0.00769000
Si       4.81350685      11.58450230      -0.03892556       0.10550300       0.20891600      -0.01008600       0.14908000       0.12379000       0.02976000
Si       6.19145377      16.10798994       1.97509565       0.13570500       0.29049300       0.51176700      -0.14016000      -0.01921000      -0.60123000
Si       6.12757967      18.91960891       1.92968250       0.13430500       0.34119800       0.50000000      -0.32274000      -0.53859000       0.03079000
Si       7.24168092     -18.91960891       0.00000000       0.15872400      -0.34119800       0.00000000       0.23258000       0.17140000       0.00804000
Si       7.15704773     -16.23436169      -0.00817414       0.15686900      -0.29277200      -0.00211800       0.39321000       0.21798000      -0.06702000
Si       9.44875933     -15.35380732       0.03027672       0.20709900      -0.27689200       0.00784500      -0.61235000      -0.32137000      -0.05118000
Si       9.24144224     -12.77968296      -0.06272626       0.20255500      -0.23047000      -0.01625300       0.22123000       0.21174000       0.90348000
Si       8.18131461     -11.71342477       1.99634917       0.17931900      -0.21124100       0.51727400       0.42640000      -0.55317000      -0.98822000
Si       8.35578216     -19.79955332       1.92968250       0.18314300      -0.35706700       0.50000000      -0.27718000       0.53014000      -0.00032000
Si      10.58398466     -18.91960891       1.92968250       0.23198100      -0.34119800       0.50000000       0.05623000       1.04151000       0.01119000
Si      10.48511667     -16.32141902       1.96655487       0.22981400      -0.29434200       0.50955400       0.27813000       0.29709000      -0.09135000
Si      11.43022529     -11.63457412      -0.05351781       0.25052900      -0.20981900      -0.01386700      -0.14818000       0.15795000       0.65679000
Si      11.69808590     -19.79955332       0.00000000       0.25640000      -0.35706700       0.00000000      -0.29701000      -0.07235000       0.00031000
Si      12.64355952     -15.11287478       1.94858567       0.27712300      -0.27254700       0.50489800      -0.52389000       0.11466000       0.00978000
Si      11.67481748     -12.97841765       1.93910707       0.25589000      -0.23405400       0.50244200       0.44190000       0.19225000      -0.52539000
Si       7.02040277      -8.36704092       0.02437575       0.15387400      -0.15089200       0.00631600      -0.43784000       0.44490000      -0.64413000
Si       6.94799691      -5.80799910      -0.00181004       0.15228700      -0.10474200      -0.00046900       0.38687000       0.43024000       0.61946000
Si       9.17674690      -4.79891041      -0.02287060       0.20113700      -0.08654400      -0.00592600      -0.17612000      -0.44883000       0.13712000
Si       8.93215470      -2.25151320       0.01275134       0.19577600      -0.04060400       0.00330400       0.68423000      -0.14468000      -0.64747000
Si       7.92764317      -1.25434637       1.87735723       0.17375900      -0.02262100       0.48644200      -0.12354000      -0.50428000       0.65395000
Si       8.03321794      -9.28524620       1.89942508       0.17607300      -0.16745100       0.49216000       0.74578000       0.38438000       0.65281000
Si      10.29139564      -8.13963831       1.92027723       0.22556800      -0.14679100       0.49756300       0.00530000      -0.23794000       0.05410000
Si      10.40075723      -5.65190587       1.92011899       0.22796500      -0.10192700       0.49752200      -0.52183000       0.72311000      -0.09628000
Si      11.14730863      -1.07213594       0.02309444       0.24432800      -0.01933500       0.00598400      -0.25895000       0.09235000       0.31757000
Si      11.10287050      -9.18316178      -0.00708965       0.24335400      -0.16561000      -0.00183700       0.10329000      -0.41947000      -0.08352000
Si      12.50052715      -4.44391613       1.92003023       0.27398800      -0.08014200       0.49749900      -0.19031000      -0.00641000       0.01649000
Si      11.55418667      -2.30591017       1.97786281       0.25324600      -0.04158500       0.51248400       0.19698000      -0.34138000      -0.28722000
Si       6.73397304       2.10551196       0.02372352       0.14759600       0.03797100       0.00614700       1.72037000       0.34302000      -0.41383000
Si       6.79935275       4.59723684       0.05861604       0.14902900       0.08290700       0.01518800       0.72673000       0.57900000      -0.34306000
Si       9.11898646       5.61236964      -0.01199491       0.19987100       0.10121400      -0.00310800      -0.94251000      -0.23033000       0.59173000
Si       9.09923111       8.08257972      -0.03385049       0.19943800       0.14576200      -0.00877100      -0.51294000       0.10375000       0.34477000
Si       7.99626221       9.05263124       1.93867868       0.17526300       0.16325600       0.50233100       0.32798000      -0.34957000      -0.38289000
Si       7.89593424       1.17749194       1.89054082       0.17306400       0.02123500       0.48985800      -0.43777000       0.54907000       0.40294000
Si       9.99561291       2.28805510       1.93011475       0.21908500       0.04126300       0.50011200       0.70062000       0.11663000       0.44638000
Si      10.20931741       4.82391860       1.96915609       0.22376900       0.08699500       0.51022800       0.40472000      -0.18762000      -0.61759000
Si      11.18878117       9.22757765       0.06125198       0.24523700       0.16641100       0.01587100       0.50826000      -0.89877000      -0.60284000
Si      10.90841948       1.30225563       0.03877118       0.23909200       0.02348500       0.01004600      -0.04988000       0.05940000      -0.43749000
Si      12.46421016       5.77450698       1.91856367       0.27319200       0.10413800       0.49711900      -0.24185000      -0.44967000      -0.01166000
Si      11.66916006       7.90630249       1.92874081       0.25576600       0.14258300       0.49975600      -0.13009000       0.59484000       0.56012000
Si       7.04932861      12.50536920       0.04434024       0.15450800       0.22552300       0.01148900      -0.05634000      -0.03605000      -1.02462000
Si       7.18095489      15.02459754      -0.02767165       0.15739300       0.27095500      -0.00717000      -0.30153000       0.34789000       0.58732000
Si       9.42448717      15.95799626       0.04435568       0.20656700       0.28778800       0.01149300       0.25324000      -0.10820000      -0.56981000
Si       9.46988341      18.91960891       0.00000000       0.20756200       0.34119800       0.00000000      -0.39568000       0.02927000       0.00405000
Si       8.35578216      19.79955332       1.92968250       0.18314300       0.35706700       0.50000000      -0.10153000      -0.42150000       0.01946000
Si       8.03048048      11.50476444       1.87577103       0.17601300       0.20747800       0.48603100       0.65691000       0.24710000       0.96901000
Si      10.37242450      12.51435219       1.97059949       0.22734400       0.22568500       0.51060200      -0.11139000      -0.24427000      -0.48159000