32
Lattice="5.44388328 -0.05512626 0.0 -0.02151598 5.50268959 0.0 0.0 0.0 21.76" Properties=species:S:1:pos:R:3:dft_force:R:3 dft_virial="10.20194751 -2.90866586 -4.49398445 -2.90866586 3.09397377 3.04036958 -4.49398445 3.04036958 6.22742245" config_type=decohesion dft_energy=-5216.86693074 cutoff=-1.0 nneightol=1.2 pbc="T T T"
Si       0.84967110       0.78617301       0.86476416       0.73588000      -0.01393000      -1.08549000
Si       2.31230310       2.13658576       2.13659264      -0.89568000       0.72435000       0.05332000
Si       3.67791899       3.59674277       0.75304832      -1.81700000      -0.75386000      -0.68877000
Si       4.93425514       4.83365961       2.11341824       1.18117000      -0.39088000       1.09876000
Si       3.54419679       0.60867003       3.34751488       0.18755000       1.15570000       1.11152000
Si       4.82377150       2.05871538       4.91142784      -1.93998000       0.09578000      -0.02649000
Si       0.70919609       3.37876996       3.66656000       1.35887000       0.86644000      -2.24950000
Si       2.13742313       4.88675322       4.73752192      -0.84556000       0.14516000       0.66295000
Si       0.74556151       0.81109147       6.12489600       1.32576000      -0.29805000       0.54312000
Si       2.19756869       2.09993461       7.57082624      -0.13113000       0.18051000      -0.63937000
Si       3.45982975       3.70522594       6.23865728      -0.61305000      -2.46280000      -1.00208000
Si       4.77423109       4.96225509       7.47791104       2.77130000      -1.02717000       0.23293000
Si       3.54088341       0.60403198       8.82718336      -1.30419000       2.20149000       2.81000000
Si       4.89968456       2.23384968      10.33713152       0.50238000      -2.18233000      -1.07584000
Si       0.78843513       3.48988784       8.81214720      -0.24749000       0.69064000       0.82319000
Si       2.08801606       4.83393458      10.42571648       0.69523000      -0.38888000      -2.56319000
Si       0.83436190       0.62369698      11.71240704      -0.99000000       2.43020000       0.29390000
Si       2.12149059       2.09230822      13.10117376      -0.28093000       1.36022000      -1.45674000
Si       3.62310251       3.61312847      11.59607808      -1.08090000      -0.83321000       1.73697000
Si       4.84907765       4.91312495      13.13755648       0.29785000      -0.55460000      -0.78824000
Si       3.47208402       0.78143504      14.28935680       0.30916000      -0.19283000       2.68332000
Si       4.76037938       2.24125252      15.89561472       2.30841000      -2.09694000      -5.20649000
Si       0.79279709       3.62035129      14.43617152      -0.31688000      -0.74781000       0.52869000
Si       2.09548998       4.91613736      15.91380608       1.34602000      -0.68823000      -1.83325000
Si       0.79641942       0.95646351      16.85801600       0.28885000      -0.50782000       2.95816000
Si       2.24218828       2.16870387      18.45010816      -1.76345000      -0.88627000       0.91537000
Si       3.52917559       3.32124356      17.09802880      -1.71212000       5.00415000       2.67776000
Si       4.91571163       5.02778750      18.42817408      -0.45912000      -0.55924000      -0.26248000
Si       3.43915366       0.74982665      19.93155072       1.42391000       0.84205000      -1.39187000
Si       4.91287510       2.10702170      21.25131648       0.35005000      -0.00381000      -0.66337000
Si       0.80970788       3.61686206      19.76978688      -0.89500000      -1.39264000      -0.93448000
Si       2.12723266       4.84078972      21.05364864       0.21009000       0.28459000       2.73771000
32
Lattice="5.45591182 0.02148576 0.0 0.04520754 5.36477223 0.0 0.0 0.0 22.16" Properties=species:S:1:pos:R:3:dft_force:R:3 dft_virial="16.57520229 -14.09922081 -9.71037671 -14.09922081 16.52302889 7.58047714 -9.71037671 7.58047714 5.09802256" config_type=decohesion dft_energy=-5214.16770287 cutoff=-1.0 nneightol=1.2 pbc="T T T"
Si       0.84967168       0.78617447       0.86477184       0.25229000       0.39863000      -2.57738000
Si       2.31230291       2.13658605       2.13657856      -0.86127000       0.87923000      -0.19935000
Si       3.67792313       3.59674534       0.75306328      -1.43557000      -1.40337000      -2.59838000
Si       4.93425512       4.83365583       2.11342136       2.23535000      -1.26494000      -0.25914000
Si       3.54419619       0.60867084       3.34751176      -0.69390000       2.38069000       1.75415000
Si       4.82377069       2.05871699       4.91143160      -1.82627000       0.89278000      -0.55347000
Si       0.70919991       3.37876956       3.66657144       1.00476000       0.17845000      -1.85373000
Si       2.13742392       4.88675397       4.73751992      -0.48596000      -0.72383000       0.46615000
Si       0.74556262       0.81109074       6.12489104       1.03771000       0.09321000       1.21314000
Si       2.19757101       2.09993394       7.57083104      -0.12696000       0.32535000      -0.53618000
Si       3.45982788       3.70522762       6.23866048      -0.61347000      -2.59103000      -1.05283000
Si       4.77423105       4.96225335       7.47791416       4.01324000      -2.05440000      -1.22721000
Si       3.54088367       0.60403352       8.82717008      -2.48707000       3.54490000       4.01621000
Si       4.89968447       2.23384807      10.33713032       0.66759000      -1.71916000      -1.23081000
Si       0.78843696       3.48989266       8.81214560      -0.36497000       0.20971000       1.00572000
Si       2.08801367       4.83393809      10.42570384       1.71316000      -1.77515000      -3.51156000
Si       0.83436313       0.62369573      11.71240208      -2.15612000       3.46193000       1.48490000
Si       2.12149204       2.09230630      13.10116928      -0.27724000       1.50975000      -1.37249000
Si       3.62310015       3.61312750      11.59608424      -1.07928000      -0.96217000       1.64430000
Si       4.84907886       4.91312410      13.13755600       1.30229000      -1.47792000      -1.83408000
Si       3.47208148       0.78143256      14.28936632      -0.73887000       1.14437000       3.36792000
Si       4.76038024       2.24125517      15.89563392       2.10039000      -1.52028000      -5.44787000
Si       0.79279886       3.62035531      14.43615416      -0.27422000      -1.25141000       0.70845000
Si       2.09548786       4.91614238      15.91380512       2.56470000      -2.43969000      -2.58109000
Si       0.79641841       0.95646229      16.85802056      -0.69282000       0.79403000       4.02157000
Si       2.24218920       2.16870672      18.45010576      -1.73527000      -0.74784000       0.97243000
Si       3.52917521       3.32124557      17.09803552      -1.74183000       4.93405000       2.60271000
Si       4.91571026       5.02778647      18.42816736      -0.03627000      -1.00164000      -0.75315000
Si       3.43915165       0.74982345      19.93154608       1.33596000       1.68856000      -0.99002000
Si       4.91287702       2.10702200      21.25132920       0.33890000       0.69092000       1.40820000
Si       0.80970949       3.61686518      19.76980024      -0.89794000      -1.81047000      -0.42865000
Si       2.12723263       4.84078755      21.05363984      -0.04103000      -0.38325000       4.34155000
32
Lattice="5.53052854 0.01502648 0.0 -0.0427871 5.52295159 0.0 0.0 0.0 22.56" Properties=species:S:1:pos:R:3:dft_force:R:3 dft_virial="-3.11033892 -3.98080939 -0.89825963 -3.98080939 -5.46432315 4.04680059 -0.89825963 4.04680059 -9.59949766" config_type=decohesion dft_energy=-5213.52619997 cutoff=-1.0 nneightol=1.2 pbc="T T T"
Si       0.84967161       0.78617549       0.86476992      -0.26180000      -0.17225000      -2.06387000
Si       2.31230261       2.13658503       2.13658992      -0.82769000       0.79152000      -0.33668000
Si       3.67792203       3.59674499       0.75305280      -1.15903000      -1.40333000      -2.53989000
Si       4.93425434       4.83365833       2.11342080       1.67169000       0.23282000       0.45007000
Si       3.54419431       0.60867258       3.34749792       0.39381000       0.92358000       0.85219000
Si       4.82376889       2.05871798       4.91142480      -1.09402000       0.60758000      -0.44337000
Si       0.70919533       3.37876923       3.66656400       0.47650000       0.19412000      -1.66261000
Si       2.13742172       4.88675231       4.73753232      -0.95667000       0.26079000       0.74824000
Si       0.74556327       0.81109438       6.12490464       0.80867000      -0.73165000       0.71671000
Si       2.19757123       2.09993705       7.57082016      -0.18363000       0.16040000      -0.61169000
Si       3.45982680       3.70522749       6.23865216      -0.52572000      -2.40785000      -0.97439000
Si       4.77422993       4.96225345       7.47791808       3.10081000      -0.38746000       0.16555000
Si       3.54088420       0.60403526       8.82718656      -1.00548000       1.93297000       2.54467000
Si       4.89968632       2.23384533      10.33712736       1.02246000      -1.83364000      -1.36306000
Si       0.78843481       3.48988772       8.81213904      -0.76689000       0.37685000       1.09425000
Si       2.08801639       4.83393353      10.42572048       0.40981000      -0.15890000      -2.35707000
Si       0.83436056       0.62369494      11.71240752      -1.40438000       1.78105000       0.47513000
Si       2.12148995       2.09230733      13.10117856      -0.37029000       1.35085000      -1.42835000
Si       3.62310257       3.61312659      11.59608816      -0.96682000      -0.80557000       1.71290000
Si       4.84908067       4.91312478      13.13754528       0.72638000      -0.01945000      -0.94626000
Si       3.47208026       0.78143151      14.28936864       0.56757000      -0.39593000       2.53264000
Si       4.76037835       2.24125436      15.89561808       2.70511000      -2.04352000      -5.19087000
Si       0.79279985       3.62035444      14.43616656      -0.71181000      -0.92891000       0.61304000
Si       2.09548743       4.91614260      15.91380144       1.04211000      -0.41885000      -1.64651000
Si       0.79641962       0.95646163      16.85802768       0.10563000      -0.76748000       2.75719000
Si       2.24219067       2.16870449      18.45010944      -1.79527000      -0.92659000       0.92319000
Si       3.52917486       3.32124236      17.09804352      -1.66899000       4.95460000       2.57960000
Si       4.91571047       5.02778796      18.42818112      -0.11563000      -0.20700000      -0.32953000
Si       3.43915234       0.74982190      19.93153440       1.30510000       0.62405000      -0.92505000
Si       4.91287498       2.10702182      21.25131696       0.53299000       0.63616000       1.48248000
Si       0.80970641       3.61686562      19.76980176      -1.26068000      -1.40572000      -0.35765000
Si       2.12723639       4.84078928      21.05364624       0.20614000       0.18677000       3.52901000
32
Lattice="5.42926732 -0.01443322 0.0 0.02998883 5.37545534 0.0 0.0 0.0 22.96" Properties=species:S:1:pos:R:3:dft_force:R:3 dft_virial="16.22311451 -8.07595049 -9.59977881 -8.07595049 13.34821981 5.15950375 -9.59977881 5.15950375 3.83020671" config_type=decohesion dft_energy=-5210.79909789 cutoff=-1.0 nneightol=1.2 pbc="T T T"
Si       0.84967026       0.78617633       0.86476544       0.65681000       0.61294000      -1.74941000
Si       2.31230178       2.13658423       2.13658872      -0.75405000       0.91857000      -0.34413000
Si       3.67792048       3.59674431       0.75304208      -1.29051000      -1.38865000      -1.89401000
Si       4.93425513       4.83365866       2.11342208       1.87709000      -1.33675000       0.03852000
Si       3.54419375       0.60867323       3.34749912      -0.58035000       2.11088000       1.45233000
Si       4.82377145       2.05871950       4.91141952      -2.08381000       0.61206000      -0.31116000
Si       0.70919665       3.37877254       3.66657424       1.24116000       0.49347000      -2.02745000
Si       2.13742191       4.88675358       4.73752048      -0.57429000      -0.65907000       0.51671000
Si       0.74556037       0.81109455       6.12490144       1.32944000       0.21187000       0.95669000
Si       2.19757067       2.09993781       7.57083040      -0.09348000       0.29970000      -0.57069000
Si       3.45983155       3.70522720       6.23864528      -0.64104000      -2.57322000      -1.02374000
Si       4.77423126       4.96225295       7.47791128       3.58999000      -2.10195000      -0.83779000
Si       3.54088854       0.60403217       8.82717864      -2.32086000       3.39084000       3.82229000
Si       4.89968431       2.23384615      10.33714304       0.48389000      -1.90887000      -1.10823000
Si       0.78843351       3.48988923       8.81213984      -0.19252000       0.39936000       0.87355000
Si       2.08801337       4.83393591      10.42572272       1.57298000      -1.60905000      -3.34947000
Si       0.83435976       0.62369848      11.71240112      -1.72798000       3.50797000       1.11474000
Si       2.12149008       2.09230791      13.10115968      -0.25306000       1.48754000      -1.39084000
Si       3.62309946       3.61312954      11.59608576      -1.10903000      -0.96050000       1.66603000
Si       4.84907765       4.91312586      13.13755128       0.89394000      -1.50042000      -1.48708000
Si       3.47208398       0.78143572      14.28936264      -0.58413000       0.97457000       3.21769000
Si       4.76038142       2.24125305      15.89562128       2.00314000      -1.63913000      -5.32356000
Si       0.79279901       3.62035261      14.43616888      -0.14623000      -1.11827000       0.64701000
Si       2.09548669       4.91614023      15.91380560       2.37474000      -2.18519000      -2.42109000
Si       0.79641909       0.95646433      16.85803560      -0.37077000       0.66468000       3.68515000
Si       2.24219264       2.16870667      18.45010496      -1.70042000      -0.82000000       1.04887000
Si       3.52917757       3.32124039      17.09803648      -1.78619000       4.91716000       2.57493000
Si       4.91571107       5.02779165      18.42817816      -0.19073000      -0.94859000      -0.50112000
Si       3.43915236       0.74982374      19.93153008       1.24985000       1.47141000      -0.91019000
Si       4.91287592       2.10702371      21.25131680       0.26913000       0.34752000       0.91855000
Si       0.80970824       3.61686194      19.76979984      -0.77255000      -1.42646000      -0.34370000
Si       2.12723520       4.84078759      21.05365416      -0.37017000      -0.24442000       3.06059000
32
Lattice="5.50043113 -0.01262896 0.0 -0.00273551 5.55174302 0.0 0.0 0.0 23.36" Properties=species:S:1:pos:R:3:dft_force:R:3 dft_virial="-2.11055919 -4.69402782 -0.07464343 -4.69402782 -7.58899977 4.90282017 -0.07464343 4.90282017 -5.42564477" config_type=decohesion dft_energy=-5210.8027236 cutoff=-1.0 nneightol=1.2 pbc="T T T"
Si       0.84967030       0.78617371       0.86476384      -0.12706000      -0.15623000      -0.83633000
Si       2.31230495       2.13658431       2.13657568      -0.71374000       0.87849000      -0.21896000
Si       3.67791853       3.59674232       0.75305632      -1.12997000      -1.22271000      -1.40123000
Si       4.93425516       4.83366053       2.11342592       1.67407000       0.13487000       0.53725000
Si       3.54419590       0.60867160       3.34751136       0.09920000       0.69035000       0.99072000
Si       4.82377132       2.05871759       4.91141664      -1.38017000       0.44326000      -0.27698000
Si       0.70919909       3.37876867       3.66656224       0.72342000       0.43922000      -1.80788000
Si       2.13742245       4.88675549       4.73752480      -0.67073000       0.46596000       0.52107000
Si       0.74556248       0.81109021       6.12489856       0.79618000      -0.80512000       0.72681000
Si       2.19756764       2.09993424       7.57083584      -0.14665000       0.13171000      -0.60457000
Si       3.45982823       3.70522989       6.23863840      -0.55641000      -2.38719000      -1.01054000
Si       4.77422844       4.96225641       7.47790976       3.13844000      -0.43360000       0.07712000
Si       3.54088693       0.60403239       8.82718336      -1.18944000       1.89391000       2.68616000
Si       4.89968440       2.23384493      10.33712704       0.85962000      -1.98681000      -1.24221000
Si       0.78843297       3.48988797       8.81213952      -0.60067000       0.53038000       0.97274000
Si       2.08801616       4.83393867      10.42570816       0.58583000      -0.08076000      -2.45270000
Si       0.83436016       0.62369842      11.71240032      -1.42352000       1.79453000       0.51298000
Si       2.12148952       2.09230873      13.10117568      -0.34332000       1.31034000      -1.41143000
Si       3.62309872       3.61312923      11.59606752      -0.99870000      -0.77892000       1.68656000
Si       4.84908043       4.91312379      13.13754720       0.73593000      -0.00387000      -0.98965000
Si       3.47208271       0.78143512      14.28935872       0.41048000      -0.45789000       2.57677000
Si       4.76037699       2.24125435      15.89561568       2.57415000      -2.12700000      -5.12142000
Si       0.79279652       3.62035486      14.43615296      -0.56694000      -0.81969000       0.54318000
Si       2.09548923       4.91614273      15.91381312       1.16443000      -0.34255000      -1.65805000
Si       0.79641928       0.95646226      16.85802432       0.13053000      -0.79187000       2.78422000
Si       2.24219170       2.16870663      18.45010176      -1.75616000      -0.97635000       0.98215000
Si       3.52917428       3.32124025      17.09802496      -1.72431000       4.95792000       2.55804000
Si       4.91571109       5.02778627      18.42816672      -0.11955000      -0.14597000      -0.28284000
Si       3.43915074       0.74982141      19.93154624       0.86777000       0.24800000      -0.76754000
Si       4.91287641       2.10702408      21.25131616       0.32816000       0.38257000       0.42805000
Si       0.80970655       3.61686286      19.76980160      -1.08890000      -1.20341000      -0.51385000
Si       2.12723631       4.84078829      21.05364384       0.44804000       0.41843000       2.01236000
32
Lattice="5.39879945 -0.09895647 0.0 0.03296945 5.39405553 0.0 0.0 0.0 23.76" Properties=species:S:1:pos:R:3:dft_force:R:3 dft_virial="18.18641382 -2.26930652 -12.10566038 -2.26930652 13.04406703 3.56655598 -12.10566038 3.56655598 9.67665365" config_type=decohesion dft_energy=-5208.87997623 cutoff=-1.0 nneightol=1.2 pbc="T T T"
Si       0.84967163       0.78617502       0.86476896       1.11116000       0.91522000      -1.13036000
Si       2.31230372       2.13658483       2.13659424      -0.75514000       0.93710000      -0.29489000
Si       3.67792058       3.59674158       0.75304944      -1.35669000      -1.28011000      -1.03378000
Si       4.93425507       4.83365817       2.11342824       1.54128000      -1.63837000       0.64243000
Si       3.54419611       0.60867377       3.34749888      -0.60500000       1.88217000       1.46850000
Si       4.82377104       2.05871738       4.91142960      -2.41070000      -0.17383000       0.38840000
Si       0.70919988       3.37876913       3.66657192       1.73990000       1.15415000      -2.52917000
Si       2.13742359       4.88675106       4.73753016      -0.54097000      -0.51256000       0.40624000
Si       0.74556143       0.81109152       6.12490032       1.47048000       0.65534000       0.43445000
Si       2.19756916       2.09993800       7.57083888      -0.05784000       0.26126000      -0.60868000
Si       3.45982681       3.70522826       6.23863944      -0.69305000      -2.56380000      -0.99498000
Si       4.77423061       4.96225452       7.47791352       3.18672000      -2.42796000      -0.40366000
Si       3.54088492       0.60403571       8.82717264      -2.27957000       3.28022000       3.75748000
Si       4.89968799       2.23384454      10.33714440       0.20722000      -2.32867000      -0.77119000
Si       0.78843502       3.48989256       8.81215632       0.05470000       0.84081000       0.50622000
Si       2.08801479       4.83393667      10.42572168       1.55033000      -1.47201000      -3.28491000
Si       0.83435929       0.62369341      11.71239696      -1.30317000       3.77566000       0.67152000
Si       2.12149351       2.09230715      13.10116896      -0.21445000       1.45274000      -1.41685000
Si       3.62309799       3.61312662      11.59606800      -1.14747000      -0.93896000       1.67555000
Si       4.84907922       4.91312367      13.13754552       0.60378000      -1.83878000      -0.96292000
Si       3.47208471       0.78143242      14.28935904      -0.54986000       0.84645000       3.15178000
Si       4.76038005       2.24125316      15.89563008       2.11502000      -2.12176000      -4.95960000
Si       0.79280142       3.62035251      14.43617208      -0.07858000      -0.68017000       0.33463000
Si       2.09548785       4.91613838      15.91380648       2.31643000      -1.97195000      -2.33971000
Si       0.79641605       0.95646256      16.85802888      -0.41403000       0.94350000       3.25380000
Si       2.24218901       2.16870586      18.45009144      -1.63433000      -0.84983000       1.03630000
Si       3.52917852       3.32124374      17.09802864      -1.82603000       4.86876000       2.60401000
Si       4.91571221       5.02779042      18.42818472      -0.26050000      -1.12579000      -0.19135000
Si       3.43914953       0.74982458      19.93155120       1.13032000       1.26667000      -0.93336000
Si       4.91287569       2.10702252      21.25132416       0.08038000      -0.02221000       0.16802000
Si       0.80970724       3.61686518      19.76979312      -0.74358000      -1.04998000      -0.70061000
Si       2.12723473       4.84078650      21.05364096      -0.23677000      -0.08330000       2.05671000
32
Lattice="5.40060523 0.07937814 0.0 -0.0577945 5.45554086 0.0 0.0 0.0 24.16" Properties=species:S:1:pos:R:3:dft_force:R:3 dft_virial="13.34705981 -7.41670995 0.01192216 -7.41670995 5.91293098 -1.05869523 0.01192216 -1.05869523 7.32236355" config_type=decohesion dft_energy=-5209.42635625 cutoff=-1.0 nneightol=1.2 pbc="T T T"
Si       0.84966962       0.78617186       0.86475888       0.26625000       0.49596000      -0.46970000
Si       2.31230275       2.13658443       2.13658960      -0.61272000       0.85414000      -0.16165000
Si       3.67791917       3.59674500       0.75304304      -1.13289000      -1.33748000      -0.85150000
Si       4.93425815       4.83365537       2.11342016       1.08818000      -0.09147000       0.63971000
Si       3.54419792       0.60867174       3.34751296       0.37886000       1.32752000       0.63770000
Si       4.82376843       2.05871734       4.91141392      -2.52584000       1.42439000      -1.17765000
Si       0.70920072       3.37876817       3.66656992       1.08173000       0.01376000      -1.48312000
Si       2.13742101       4.88675202       4.73753440      -1.02023000      -0.22185000       0.88977000
Si       0.74556280       0.81109428       6.12489824       2.29801000      -1.09857000       1.34249000
Si       2.19757000       2.09993354       7.57082592      -0.08597000       0.25354000      -0.57131000
Si       3.45983167       3.70522640       6.23864352      -0.62320000      -2.53254000      -1.05590000
Si       4.77422830       4.96225662       7.47790656       2.41887000      -0.64812000      -0.00124000
Si       3.54088735       0.60403426       8.82717008      -1.26516000       2.38163000       2.63608000
Si       4.89968856       2.23384842      10.33714592       0.32427000      -1.53064000      -1.34913000
Si       0.78843485       3.48988993       8.81214256       0.03358000      -0.03477000       1.15593000
Si       2.08801717       4.83393372      10.42571648       0.65147000      -0.56911000      -2.40140000
Si       0.83436009       0.62369562      11.71240560      -0.69907000       2.15510000       0.39595000
Si       2.12149041       2.09230584      13.10117072      -0.27363000       1.44492000      -1.35155000
Si       3.62309919       3.61312688      11.59607520      -1.07936000      -0.94423000       1.63377000
Si       4.84907809       4.91312523      13.13755568      -0.45460000       0.03959000      -1.28308000
Si       3.47208408       0.78143604      14.28935952       0.35455000      -0.01209000       2.46202000
Si       4.76037706       2.24125128      15.89561296       1.11326000      -0.84439000      -5.93475000
Si       0.79279992       3.62035090      14.43615568       0.37337000      -1.65671000       1.08284000
Si       2.09548613       4.91614035      15.91380544       1.30330000      -0.87996000      -1.62769000
Si       0.79641683       0.95646336      16.85802656       1.51160000      -1.42491000       3.65403000
Si       2.24219197       2.16870697      18.45009808      -1.68841000      -0.86427000       1.04346000
Si       3.52917596       3.32124272      17.09803200      -1.84158000       4.90579000       2.57378000
Si       4.91571094       5.02778850      18.42818496      -0.89196000       0.07274000      -0.58418000
Si       3.43915147       0.74982329      19.93154096       1.49423000       1.20828000      -1.46005000
Si       4.91287749       2.10702296      21.25132928       0.36950000       0.34105000      -0.22375000
Si       0.80970560       3.61686175      19.76978976      -0.52845000      -1.83987000      -0.16899000
Si       2.12723466       4.84079045      21.05365216      -0.33796000      -0.38742000       2.00909000
32
Lattice="5.4299294 0.01828855 0.0 -0.00894224 5.42793285 0.0 0.0 0.0 24.56" Properties=species:S:1:pos:R:3:dft_force:R:3 dft_virial="11.77408343 -6.79495775 -4.4754603 -6.79495775 7.39665984 2.79230016 -4.4754603 2.79230016 8.7387404" config_type=decohesion dft_energy=-5209.07544947 cutoff=-1.0 nneightol=1.2 pbc="T T T"
Si       0.84967178       0.78617654       0.86475760       0.40105000       0.48201000      -0.37805000
Si       2.31230352       2.13658629       2.13659720      -0.64468000       0.92313000      -0.15310000
Si       3.67792199       3.59674296       0.75305872      -1.20977000      -1.26206000      -0.71662000
Si       4.93425564       4.83365937       2.11343712       1.54496000      -0.64474000       0.59272000
Si       3.54419610       0.60867117       3.34750344      -0.06845000       1.53806000       1.04655000
Si       4.82377180       2.05871885       4.91143512      -2.09990000       0.87854000      -0.61064000
Si       0.70919551       3.37877158       3.66656240       1.02921000       0.32939000      -1.76005000
Si       2.13742407       4.88675321       4.73752576      -0.76591000      -0.32702000       0.63500000
Si       0.74556013       0.81109305       6.12489560       1.56770000      -0.39318000       0.97405000
Si       2.19756913       2.09993564       7.57084104      -0.09100000       0.26357000      -0.56683000
Si       3.45982813       3.70522986       6.23865752      -0.61852000      -2.55045000      -1.04441000
Si       4.77422922       4.96225163       7.47790600       3.07778000      -1.34135000      -0.30633000
Si       3.54088603       0.60403540       8.82718328      -1.74085000       2.80007000       3.15080000
Si       4.89968734       2.23384722      10.33713208       0.49512000      -1.78730000      -1.17883000
Si       0.78843647       3.48988834       8.81215256      -0.18800000       0.26117000       0.94408000
Si       2.08801701       4.83393556      10.42572000       1.06832000      -0.98061000      -2.79530000
Si       0.83436090       0.62369861      11.71241840      -1.28365000       2.77390000       0.65767000
Si       2.12149167       2.09230823      13.10116360      -0.27783000       1.44884000      -1.35928000
Si       3.62310128       3.61312988      11.59607768      -1.07358000      -0.94229000       1.62787000
Si       4.84908070       4.91312556      13.13756152       0.35299000      -0.72283000      -1.22991000
Si       3.47208398       0.78143376      14.28937640      -0.05391000       0.38043000       2.76045000
Si       4.76038038       2.24125400      15.89562496       1.83556000      -1.45549000      -5.44404000
Si       0.79279899       3.62035326      14.43617152      -0.04421000      -1.25559000       0.72028000
Si       2.09548895       4.91614009      15.91379936       1.75950000      -1.37197000      -1.92878000
Si       0.79641656       0.95646235      16.85803312       0.35138000      -0.31147000       3.46483000
Si       2.24218784       2.16870622      18.45011056      -1.67680000      -0.84604000       1.03717000
Si       3.52917686       3.32124508      17.09803344      -1.82643000       4.86320000       2.58132000
Si       4.91571288       5.02778772      18.42817848      -0.40319000      -0.41072000      -0.43529000
Si       3.43914905       0.74982436      19.93154520       1.30817000       1.20416000      -1.28995000
Si       4.91287387       2.10702386      21.25132592       0.34704000       0.26855000      -0.33368000
Si       0.80970820       3.61686575      19.76979304      -0.80798000      -1.55106000      -0.47067000
Si       2.12723175       4.84078746      21.05364248      -0.26412000      -0.26085000       1.80898000
32
Lattice="5.40125547 -0.01470817 0.0 0.04992299 5.44249698 0.0 0.0 0.0 24.96" Properties=species:S:1:pos:R:3:dft_force:R:3 dft_virial="13.60009842 -9.1019304 -5.46651101 -9.1019304 8.04057809 4.80475669 -5.46651101 4.80475669 10.93429517" config_type=decohesion dft_energy=-5208.73565554 cutoff=-1.0 nneightol=1.2 pbc="T T T"
Si       0.84967166       0.78617138       0.86476416       0.37511000       0.42186000      -0.27529000