2
Lattice="2.62281681 -0.04165917 -0.01074759 -1.35164286 2.35061575 0.01789556 0.07925396 -0.07908421 4.65100935" Properties=species:S:1:pos:R:3:dft_force:R:3 config_type=hcp Minim_Constant_Volume=T dft_virial="0.59717475 0.12019851 -0.23840981 0.12019851 0.3623456 0.12611296 -0.23840981 0.12611296 0.37848698" dft_energy=-325.2206723 cutoff=-1.0 nneightol=1.2 pbc="T T T"
Si       0.04967141      -0.01382563       0.06476802      -0.06955000      -0.03393000      -0.26427000
Si       0.15230213       1.52521902       2.30292230       0.06955000       0.03393000       0.26427000
2
Lattice="2.68486865 -0.01000324 -0.00835557 -1.36102092 2.26077808 0.07693349 -0.05669428 0.22952288 4.54725323" Properties=species:S:1:pos:R:3:dft_force:R:3 config_type=hcp Minim_Constant_Volume=T dft_virial="0.84349581 0.11383464 0.04899225 0.11383464 0.84417004 -0.22356372 0.04899225 -0.22356372 1.27837313" dft_energy=-325.19548859 cutoff=-1.0 nneightol=1.2 pbc="T T T"
Si       0.04967132      -0.01382605       0.06476820      -0.02110000       0.11852000      -0.27725000
Si       0.15230293       1.52521864       2.30292184       0.02110000      -0.11852000       0.27725000
2
Lattice="2.69145249 0.14049335 -0.03353536 -1.31446697 2.24926163 0.07972963 0.0860319 0.14157525 4.70289123" Properties=species:S:1:pos:R:3:dft_force:R:3 config_type=hcp Minim_Constant_Volume=T dft_virial="0.23478729 -0.32159123 0.01209869 -0.32159123 -0.02360314 -0.09531318 0.01209869 -0.09531318 0.0883193" dft_energy=-325.19678324 cutoff=-1.0 nneightol=1.2 pbc="T T T"
Si       0.04967032      -0.01382612       0.06476829      -0.01088000       0.11196000      -0.37676000
Si       0.15230067       1.52521926       2.30292347       0.01088000      -0.11196000       0.37676000
2
Lattice="2.62117474 0.0202881 0.01173533 -1.34679836 2.25169099 0.01566109 -0.02203799 -0.04760554 4.73269767" Properties=species:S:1:pos:R:3:dft_force:R:3 config_type=hcp Minim_Constant_Volume=T dft_virial="0.82689569 0.10816261 -0.09566703 0.10816261 1.08227612 -0.0255489 -0.09566703 -0.0255489 0.41820818" dft_energy=-325.21105265 cutoff=-1.0 nneightol=1.2 pbc="T T T"
Si       0.04966974      -0.01382518       0.06477074      -0.08932000      -0.04635000      -0.37167000
Si       0.15230108       1.52521869       2.30292315       0.08932000       0.04635000       0.37167000
2
Lattice="2.6480399 -0.12321023 -0.01562071 -1.31797768 2.39656958 0.06324432 0.06702821 -0.00899698 4.68149222" Properties=species:S:1:pos:R:3:dft_force:R:3 config_type=hcp Minim_Constant_Volume=T dft_virial="0.35260045 0.17952661 -0.02785111 0.17952661 0.22303058 -0.0835123 -0.02785111 -0.0835123 0.16452774" dft_energy=-325.21042187 cutoff=-1.0 nneightol=1.2 pbc="T T T"
Si       0.04967210      -0.01382658       0.06477115      -0.04191000       0.02068000      -0.35617000
Si       0.15230028       1.52522002       2.30292032       0.04191000      -0.02068000       0.35617000
2
Lattice="2.63137928 -0.00093968 0.01623546 -1.2884302 2.33940857 -0.05732121 -0.09195969 -0.19593074 4.79385144" Properties=species:S:1:pos:R:3:dft_force:R:3 config_type=hcp Minim_Constant_Volume=T dft_virial="0.24827487 -0.22729966 -0.06027415 -0.22729966 -0.18128875 0.10106601 -0.06027415 0.10106601 -0.1811419" dft_energy=-325.2232401 cutoff=-1.0 nneightol=1.2 pbc="T T T"
Si       0.04966943      -0.01382538       0.06476854      -0.10354000      -0.06091000      -0.19564000
Si       0.15230302       1.52521796       2.30292354       0.10354000       0.06091000       0.19564000
2
Lattice="2.70615689 0.04145873 -0.03577272 -1.35152852 2.30802379 -0.02226546 -0.04319971 -0.0567963 4.64544876" Properties=species:S:1:pos:R:3:dft_force:R:3 config_type=hcp Minim_Constant_Volume=T dft_virial="-0.20710031 -0.14566635 -0.12736155 -0.14566635 -0.15434603 0.07998133 -0.12736155 0.07998133 0.07756784" dft_energy=-325.2353145 cutoff=-1.0 nneightol=1.2 pbc="T T T"
Si       0.04967036      -0.01382688       0.06476744      -0.09197000      -0.02683000      -0.09663000
Si       0.15230259       1.52521878       2.30292057       0.09197000       0.02683000       0.09663000
2
Lattice="2.66353756 -0.0530803 -0.02808247 -1.39209069 2.3391423 -0.00735837 -0.00683977 0.02063069 4.7684366" Properties=species:S:1:pos:R:3:dft_force:R:3 config_type=hcp Minim_Constant_Volume=T dft_virial="0.11173493 0.18794681 -0.05901738 0.18794681 0.00025488 -0.02416956 -0.05901738 -0.02416956 0.05501294" dft_energy=-325.21999746 cutoff=-1.0 nneightol=1.2 pbc="T T T"
Si       0.04967212      -0.01382699       0.06477058      -0.11267000      -0.03107000      -0.23816000
Si       0.15230197       1.52521893       2.30292320       0.11267000       0.03107000       0.23816000
2
Lattice="2.69079009 0.0438472 0.01196921 -1.33063902 2.21191666 0.11566157 0.0835569 -0.06565412 4.43743455" Properties=species:S:1:pos:R:3:dft_force:R:3 config_type=hcp Minim_Constant_Volume=T dft_virial="1.22484521 -0.31069635 -0.12898387 -0.31069635 1.43497702 -0.30510587 -0.12898387 -0.30510587 1.683019" dft_energy=-325.15838281 cutoff=-1.0 nneightol=1.2 pbc="T T T"
Si       0.04967180      -0.01382625       0.06476935      -0.02073000       0.02196000      -0.34777000
Si       0.15230223       1.52521843       2.30292011       0.02073000      -0.02196000       0.34777000
2
Lattice="2.68652883 0.13641641 -0.03128761 -1.27016463 2.22398189 0.01509431 -0.02567048 -0.0544246 4.67114053" Properties=species:S:1:pos:R:3:dft_force:R:3 config_type=hcp Minim_Constant_Volume=T dft_virial="0.4096279 -0.32322534 0.02025449 -0.32322534 0.49667624 0.03384967 0.02025449 0.03384967 0.07851441" dft_energy=-325.20843472 cutoff=-1.0 nneightol=1.2 pbc="T T T"
Si       0.04967195      -0.01382611       0.06476920      -0.03330000      -0.03246000      -0.24336000
Si       0.15230069       1.52522002       2.30292036       0.03330000       0.03246000       0.24336000
2
Lattice="2.71527683 -0.01568832 -0.05888494 -1.2803221 2.30979244 -0.02485147 0.11026394 0.10199928 4.61778872" Properties=species:S:1:pos:R:3:dft_force:R:3 config_type=hcp Minim_Constant_Volume=T dft_virial="-0.1604523 -0.30170156 0.06988214 -0.30170156 0.02825775 0.02240513 0.06988214 0.02240513 0.31511167" dft_energy=-325.22771527 cutoff=-1.0 nneightol=1.2 pbc="T T T"
Si       0.04967144      -0.01382501       0.06477035       0.01448000       0.04414000      -0.08549000
Si       0.15230109       1.52521834       2.30292198      -0.01448000      -0.04414000       0.08549000
2
Lattice="2.70041902 -0.01344572 0.03608594 -1.3516357 2.38193995 0.00650262 0.06630414 -0.1543193 4.66335094" Properties=species:S:1:pos:R:3:dft_force:R:3 config_type=hcp Minim_Constant_Volume=T dft_virial="-0.31290518 -0.02602404 -0.18208853 -0.02602404 -0.67765603 0.12847837 -0.18208853 0.12847837 0.00160839" dft_energy=-325.21435082 cutoff=-1.0 nneightol=1.2 pbc="T T T"
Si       0.04967088      -0.01382653       0.06477071      -0.02496000      -0.03566000      -0.23809000
Si       0.15230236       1.52521996       2.30292070       0.02496000       0.03566000       0.23809000
2
Lattice="2.65817779 -0.0120874 0.04830792 -1.31822381 2.29530215 0.04374423 -0.03183463 -0.04547976 4.63293945" Properties=species:S:1:pos:R:3:dft_force:R:3 config_type=hcp Minim_Constant_Volume=T dft_virial="0.48730055 0.00119972 -0.20912924 0.00119972 0.64339816 -0.27674591 -0.20912924 -0.27674591 0.71492595" dft_energy=-325.21352571 cutoff=-1.0 nneightol=1.2 pbc="T T T"
Si       0.04967015      -0.01382513       0.06476758      -0.04463000      -0.00327000      -0.38432000
Si       0.15230228       1.52521957       2.30292276       0.04463000       0.00327000       0.38432000
2
Lattice="2.71264946 -0.02229777 -0.01949233 -1.34491377 2.34768597 -0.05955903 -0.08331574 0.08941871 4.66437332" Properties=species:S:1:pos:R:3:dft_force:R:3 config_type=hcp Minim_Constant_Volume=T dft_virial="-0.31625535 -0.02350088 0.004983 -0.02350088 -0.39045001 0.08062333 0.004983 0.08062333 -0.0654517" dft_energy=-325.23664192 cutoff=-1.0 nneightol=1.2 pbc="T T T"
Si       0.04967159      -0.01382581       0.06476825      -0.08150000       0.01880000      -0.06024000
Si       0.15230086       1.52522018       2.30292366       0.08150000      -0.01880000       0.06024000
2
Lattice="2.64197146 0.02020364 -0.0581283 -1.29429728 2.3658489 0.02698826 0.0361596 -0.06614371 4.61302779" Properties=species:S:1:pos:R:3:dft_force:R:3 config_type=hcp Minim_Constant_Volume=T dft_virial="0.32163777 0.08342505 -0.01000227 0.08342505 -0.28930889 0.04561516 -0.01000227 0.04561516 0.16153519" dft_energy=-325.22525243 cutoff=-1.0 nneightol=1.2 pbc="T T T"
Si       0.04967166      -0.01382483       0.06476854      -0.05008000      -0.01467000      -0.15226000
Si       0.15230129       1.52521837       2.30292176       0.05008000       0.01467000       0.15226000
2
Lattice="2.81257471 0.08879887 -0.02312179 -1.43975363 2.18152373 -0.02317411 -0.12070277 -0.16245674 4.60974023" Properties=species:S:1:pos:R:3:dft_force:R:3 config_type=hcp Minim_Constant_Volume=T dft_virial="0.05863301 -0.07410125 -0.01022368 -0.07410125 0.40354658 0.1389019 -0.01022368 0.1389019 0.16069876" dft_energy=-325.23804213 cutoff=-1.0 nneightol=1.2 pbc="T T T"
Si       0.04967097      -0.01382521       0.06476802      -0.14669000      -0.05232000      -0.04961000
Si       0.15230335       1.52521907       2.30292013       0.14669000       0.05232000       0.04961000
2
Lattice="2.64374074 -0.02232583 0.02363745 -1.40824724 2.40352139 0.02983089 -0.09097526 0.0129262 4.4921406" Properties=species:S:1:pos:R:3:dft_force:R:3 config_type=hcp Minim_Constant_Volume=T dft_virial="0.43929652 -0.21052049 0.10100145 -0.21052049 0.18317858 -0.02250085 0.10100145 -0.02250085 0.5501501" dft_energy=-325.23479507 cutoff=-1.0 nneightol=1.2 pbc="T T T"
Si       0.04967206      -0.01382682       0.06476695      -0.10390000      -0.01023000      -0.12603000
Si       0.15230134       1.52521792       2.30292306       0.10390000       0.01023000       0.12603000
2
Lattice="2.67153843 0.01193101 -0.01331996 -1.32329952 2.35785816 -0.01374801 0.04815484 0.06641771 4.48655756" Properties=species:S:1:pos:R:3:dft_force:R:3 config_type=hcp Minim_Constant_Volume=T dft_virial="0.25804513 0.05027417 -0.00708973 0.05027417 0.39982849 -0.00322712 -0.00708973 -0.00322712 0.38160285" dft_energy=-325.22516567 cutoff=-1.0 nneightol=1.2 pbc="T T T"
Si       0.04967205      -0.01382594       0.06476956      -0.03317000       0.02664000       0.02622000
Si       0.15230366       1.52521835       2.30292377       0.03317000      -0.02664000      -0.02622000
2
Lattice="2.57907644 0.09766947 -0.04598015 -1.22217518 2.24671511 0.11966722 -0.02852778 -0.07793174 4.79333851" Properties=species:S:1:pos:R:3:dft_force:R:3 config_type=hcp Minim_Constant_Volume=T dft_virial="1.31946251 -0.47343535 -0.00358521 -0.47343535 1.00530281 -0.07432905 -0.00358521 -0.07432905 0.44795047" dft_energy=-325.14269791 cutoff=-1.0 nneightol=1.2 pbc="T T T"
Si       0.04967227      -0.01382708       0.06476933      -0.03521000       0.00882000      -0.54938000
Si       0.15230310       1.52521934       2.30291981       0.03521000      -0.00882000       0.54938000
2
Lattice="2.56175853 -0.08882894 0.01098706 -1.30125534 2.35306399 -0.05367431 -0.03131057 -0.06553907 4.62551753" Properties=species:S:1:pos:R:3:dft_force:R:3 config_type=hcp Minim_Constant_Volume=T dft_virial="1.21718704 0.05341502 -0.21686633 0.05341502 1.1916755 0.21145003 -0.21686633 0.21145003 0.79682567" dft_energy=-325.2011449 cutoff=-1.0 nneightol=1.2 pbc="T T T"
Si       0.04967008      -0.01382616       0.06477026      -0.10794000      -0.05192000      -0.13714000
Si       0.15230196       1.52521903       2.30292206       0.10794000       0.05192000       0.13714000
2
Lattice="2.72466505 0.00235345 0.01762321 -1.36728605 2.32382553 -0.02226026 -0.06434321 0.23517954 4.64049994" Properties=species:S:1:pos:R:3:dft_force:R:3 config_type=hcp Minim_Constant_Volume=T dft_virial="-0.33939401 -0.03397132 0.01195323 -0.03397132 -0.22413807 -0.04913835 0.01195323 -0.04913835 0.10406151" dft_energy=-325.23691061 cutoff=-1.0 nneightol=1.2 pbc="T T T"
Si       0.04967050      -0.01382597       0.06477107      -0.04115000       0.10250000      -0.12366000
Si       0.15230162       1.52521824       2.30292255       0.04115000      -0.10250000       0.12366000
2
Lattice="2.70343868 0.11827074 0.01190467 -1.29222316 2.20682444 0.06943785 -0.05794977 0.02656985 4.69685833" Properties=species:S:1:pos:R:3:dft_force:R:3 config_type=hcp Minim_Constant_Volume=T dft_virial="0.36026856 -0.46798444 0.01738922 -0.46798444 0.54902024 -0.14389253 0.01738922 -0.14389253 0.46873197" dft_energy=-325.17984721 cutoff=-1.0 nneightol=1.2 pbc="T T T"
Si       0.04967016      -0.01382623       0.06476687      -0.02945000       0.04334000      -0.44928000
Si       0.15230045       1.52521950       2.30292146       0.02945000      -0.04334000       0.44928000
2
Lattice="2.61285084 0.07518219 -0.0933246 -1.38259968 2.2981736 0.04873395 0.06236113 -0.19366397 4.63603003" Properties=species:S:1:pos:R:3:dft_force:R:3 config_type=hcp Minim_Constant_Volume=T dft_virial="0.65132385 -0.04903249 -0.02781155 -0.04903249 0.09983713 0.02170601 -0.02781155 0.02170601 0.57649848" dft_energy=-325.22979155 cutoff=-1.0 nneightol=1.2 pbc="T T T"
Si       0.04967204      -0.01382674       0.06476973      -0.12199000      -0.06681000      -0.18144000
Si       0.15230389       1.52521802       2.30292404       0.12199000       0.06681000       0.18144000
2
Lattice="2.66673881 0.10865061 -0.02319003 -1.26445977 2.33295644 -0.1075852 -0.16094998 0.09068586 4.75128599" Properties=species:S:1:pos:R:3:dft_force:R:3 config_type=hcp Minim_Constant_Volume=T dft_virial="-0.41870409 0.05805399 0.14304477 0.05805399 -0.58461938 -0.03519007 0.14304477 -0.03519007 -0.5047537" dft_energy=-325.208782 cutoff=-1.0 nneightol=1.2 pbc="T T T"
Si       0.04967154      -0.01382710       0.06476855      -0.04058000       0.01761000      -0.13794000
Si       0.15230263       1.52521963       2.30292038       0.04058000      -0.01761000       0.13794000
2
Lattice="2.64197384 -0.05109284 -0.09111747 -1.29484156 2.39637724 0.13440474 0.04418948 0.07542571 4.59386801" Properties=species:S:1:pos:R:3:dft_force:R:3 config_type=hcp Minim_Constant_Volume=T dft_virial="0.37751117 0.02418438 0.19732924 0.02418438 -0.19552553 -0.11968119 0.19732924 -0.11968119 0.57783637" dft_energy=-325.21075476 cutoff=-1.0 nneightol=1.2 pbc="T T T"
Si       0.04967061      -0.01382491       0.06476797      -0.02559000       0.09450000      -0.33714000
Si       0.15230356       1.52521782       2.30292019       0.02559000      -0.09450000       0.33714000
2
Lattice="2.58734666 0.02224294 0.01361029 -1.2863802 2.35573008 0.01129056 -0.13291558 0.02648474 4.63774359" Properties=species:S:1:pos:R:3:dft_force:R:3 config_type=hcp Minim_Constant_Volume=T dft_virial="0.9230712 0.03281142 0.00501025 0.03281142 -0.01994331 -0.02107346 0.00501025 -0.02107346 0.47246527" dft_energy=-325.21476082 cutoff=-1.0 nneightol=1.2 pbc="T T T"
Si       0.04967036      -0.01382670       0.06476774      -0.07686000      -0.00669000      -0.26671000
Si       0.15230158       1.52521942       2.30292125       0.07686000       0.00669000       0.26671000
2
Lattice="2.63354165 -0.08268393 -0.05737517 -1.28799094 2.38958894 0.10119566 0.10170948 0.02648342 4.60635543" Properties=species:S:1:pos:R:3:dft_force:R:3 config_type=hcp Minim_Constant_Volume=T dft_virial="0.58424482 -0.00450044 0.05587853 -0.00450044 0.05009246 0.00284064 0.05587853 0.00284064 0.55973127" dft_energy=-325.21343844 cutoff=-1.0 nneightol=1.2 pbc="T T T"
Si       0.04967025      -0.01382533       0.06477093      -0.01793000       0.06741000      -0.32126000
Si       0.15230239       1.52521886       2.30292359       0.01793000      -0.06741000       0.32126000
2
Lattice="2.81436677 -0.01551354 -0.11120026 -1.43022273 2.32095822 0.06543753 0.07056768 0.01776848 4.56941042" Properties=species:S:1:pos:R:3:dft_force:R:3 config_type=hcp Minim_Constant_Volume=T dft_virial="-0.46668415 0.20985512 0.0482171 0.20985512 -0.49338319 -0.03517968 0.0482171 -0.03517968 -0.07422952" dft_energy=-325.22305512 cutoff=-1.0 nneightol=1.2 pbc="T T T"
Si       0.04967122      -0.01382688       0.06477018      -0.04922000       0.02406000      -0.09679000
Si       0.15230257       1.52521857       2.30292170       0.04922000      -0.02406000       0.09679000
2
Lattice="2.62391876 -0.03931069 0.03267165 -1.27010213 2.33461343 0.01285279 0.03187655 0.0604805 4.61996781" Properties=species:S:1:pos:R:3:dft_force:R:3 config_type=hcp Minim_Constant_Volume=T dft_virial="0.72383534 -0.08952916 -0.14302487 -0.08952916 0.40223874 -0.02581014 -0.14302487 -0.02581014 0.74939623" dft_energy=-325.21553343 cutoff=-1.0 nneightol=1.2 pbc="T T T"
Si       0.04967127      -0.01382594       0.06476892      -0.01930000       0.03430000      -0.24250000
Si       0.15230271       1.52521950       2.30292271       0.01930000      -0.03430000       0.24250000
2
Lattice="2.68811706 -0.01740365 -0.00362894 -1.3750595 2.33235638 -0.04190403 -0.11225893 0.01779409 4.64343064" Properties=species:S:1:pos:R:3:dft_force:R:3 config_type=hcp Minim_Constant_Volume=T dft_virial="-0.05827561 0.0314144 0.05567181 0.0314144 -0.00658859 0.09004861 0.05567181 0.09004861 0.1958961" dft_energy=-325.24247358 cutoff=-1.0 nneightol=1.2 pbc="T T T"
Si       0.04966939      -0.01382511       0.06477047      -0.12077000      -0.02964000      -0.10007000
Si       0.15230326       1.52521819       2.30292183       0.12077000       0.02964000       0.10007000
2
Lattice="2.6299274 -0.04785825 0.02537445 -1.34458935 2.38297248 -0.03721523 0.15473137 0.06351954 4.71246185" Properties=species:S:1:pos:R:3:dft_force:R:3 config_type=hcp Minim_Constant_Volume=T dft_virial="0.26059984 0.05927009 -0.08437176 0.05927009 -0.10569832 0.02871827 -0.08437176 0.02871827 0.0150811" dft_energy=-325.21773318 cutoff=-1.0 nneightol=1.2 pbc="T T T"
Si       0.04967193      -0.01382617       0.06477062      -0.01627000       0.01682000      -0.21067000
Si       0.15230254       1.52521885       2.30292071       0.01627000      -0.01682000       0.21067000
2
Lattice="2.78065439 0.0534029 -0.03637689 -1.41522298 2.20791644 -0.01089337 0.02008 -0.11666496 4.43152616" Properties=species:S:1:pos:R:3:dft_force:R:3 config_type=hcp Minim_Constant_Volume=T dft_virial="0.72067462 -0.03076024 0.03614272 -0.03076024 1.02587328 0.30878216 0.03614272 0.30878216 0.98976372" dft_energy=-325.20171982 cutoff=-1.0 nneightol=1.2 pbc="T T T"
Si       0.04967257      -0.01382680       0.06477120      -0.06366000      -0.01247000       0.23900000
Si       0.15230254       1.52521800       2.30291992       0.06366000       0.01247000      -0.23900000
2
Lattice="2.67524305 -0.01023974 0.0966099 -1.33433798 2.34151194 -0.03875875 0.04731342 -0.03345464 4.54478239" Properties=species:S:1:pos:R:3:dft_force:R:3 config_type=hcp Minim_Constant_Volume=T dft_virial="0.29354309 -0.06344687 -0.21394215 -0.06344687 0.07757898 0.09570734 -0.21394215 0.09570734 0.66212423" dft_energy=-325.22142558 cutoff=-1.0 nneightol=1.2 pbc="T T T"
Si       0.04967110      -0.01382674       0.06477119      -0.02098000      -0.00969000      -0.16502000
Si       0.15230088       1.52521940       2.30292377       0.02098000       0.00969000       0.16502000
2
Lattice="2.70137437 -0.04172871 0.05891289 -1.4063866 2.36260087 -0.040365 -0.03054066 -0.09219179 4.73328677" Properties=species:S:1:pos:R:3:dft_force:R:3 config_type=hcp Minim_Constant_Volume=T dft_virial="-0.42755844 0.23443715 -0.18005213 0.23443715 -0.31947575 0.04487623 -0.18005213 0.04487623 -0.08731659" dft_energy=-325.22007234 cutoff=-1.0 nneightol=1.2 pbc="T T T"
Si       0.04967034      -0.01382501       0.06477068      -0.09560000      -0.05018000      -0.23866000
Si       0.15230018       1.52521992       2.30292063       0.09560000       0.05018000       0.23866000
2
Lattice="2.65965236 0.03060434 0.01371082 -1.38364782 2.2975785 -0.00219327 -0.04038681 0.00685182 4.71219639" Properties=species:S:1:pos:R:3:dft_force:R:3 config_type=hcp Minim_Constant_Volume=T dft_virial="0.22065962 0.16012855 -0.01353623 0.16012855 0.1039089 -0.03172847 -0.01353623 -0.03172847 0.17936612" dft_energy=-325.23396483 cutoff=-1.0 nneightol=1.2 pbc="T T T"
Si       0.04967255      -0.01382691       0.06477092      -0.09386000      -0.02416000      -0.28296000
Si       0.15230241       1.52521960       2.30292033       0.09386000       0.02416000       0.28296000
2
Lattice="2.68228997 0.02966279 0.06839986 -1.33700239 2.26409227 0.01184431 -0.05369584 0.04429717 4.76621894" Properties=species:S:1:pos:R:3:dft_force:R:3 config_type=hcp Minim_Constant_Volume=T dft_virial="0.01852934 -0.13388031 -0.15626213 -0.13388031 0.43573095 -0.09123421 -0.15626213 -0.09123421 0.31868961" dft_energy=-325.20510924 cutoff=-1.0 nneightol=1.2 pbc="T T T"
Si       0.04967049      -0.01382672       0.06476935      -0.05605000       0.02721000      -0.42002000
Si       0.15230242       1.52521906       2.30292220       0.05605000      -0.02721000       0.42002000
2
Lattice="2.69558353 -0.03889148 -0.0216552 -1.34395894 2.38264363 0.04817155 -0.01732417 -0.08039901 4.80822839" Properties=species:S:1:pos:R:3:dft_force:R:3 config_type=hcp Minim_Constant_Volume=T dft_virial="-0.63336515 0.09634241 -0.06037047 0.09634241 -0.62498327 0.03477277 -0.06037047 0.03477277 -0.19619414" dft_energy=-325.19644938 cutoff=-1.0 nneightol=1.2 pbc="T T T"
Si       0.04967128      -0.01382533       0.06476734      -0.07419000      -0.01260000      -0.31897000
Si       0.15230099       1.52521964       2.30292245       0.07419000       0.01260000       0.31897000
2
Lattice="2.74150607 -0.08060014 0.02003754 -1.4106061 2.31733857 -0.04087852 0.005774 -0.02369482 4.53028262" Properties=species:S:1:pos:R:3:dft_force:R:3 config_type=hcp Minim_Constant_Volume=T dft_virial="0.34069495 0.31629781 -0.11003372 0.31629781 0.58104023 0.11796411 -0.11003372 0.11796411 0.37995616" dft_energy=-325.22048553 cutoff=-1.0 nneightol=1.2 pbc="T T T"
Si       0.04967122      -0.01382645       0.06476800      -0.08095000      -0.03217000      -0.02752000
Si       0.15230274       1.52521811       2.30292332       0.08095000       0.03217000       0.02752000
2
Lattice="2.68536041 0.00884221 0.02488515 -1.33853687 2.38430354 0.03883461 -0.15582345 0.00687784 4.59437776" Properties=species:S:1:pos:R:3:dft_force:R:3 config_type=hcp Minim_Constant_Volume=T dft_virial="-0.275097 -0.07422471 0.01994165 -0.07422471 -0.22243383 -0.14070492 0.01994165 -0.14070492 0.03227312" dft_energy=-325.22434426 cutoff=-1.0 nneightol=1.2 pbc="T T T"
Si       0.04967137      -0.01382593       0.06477065      -0.06488000       0.01352000      -0.23330000
Si       0.15230153       1.52521933       2.30292258       0.06488000      -0.01352000       0.23330000
2
Lattice="2.66630024 -0.03879627 -0.05021071 -1.33842576 2.35790382 0.03119008 -0.00248386 -0.03448685 4.68062958" Properties=species:S:1:pos:R:3:dft_force:R:3 config_type=hcp Minim_Constant_Volume=T dft_virial="0.08132466 0.08368406 0.09245626 0.08368406 -0.17336179 0.01038004 0.09245626 0.01038004 0.12064318" dft_energy=-325.23132833 cutoff=-1.0 nneightol=1.2 pbc="T T T"
Si       0.04967209      -0.01382580       0.06477108      -0.08269000      -0.02318000      -0.20173000
Si       0.15230328       1.52521908       2.30292066       0.08269000       0.02318000       0.20173000
2
Lattice="2.69383812 0.08787389 -0.02760037 -1.32125812 2.2509213 0.10214236 0.07200847 -0.07354215 4.56282371" Properties=species:S:1:pos:R:3:dft_force:R:3 config_type=hcp Minim_Constant_Volume=T dft_virial="0.21236014 -0.3823405 -0.02420352 -0.3823405 0.73086043 -0.03490168 -0.02420352 -0.03490168 0.64895566" dft_energy=-325.2014843 cutoff=-1.0 nneightol=1.2 pbc="T T T"
Si       0.04967175      -0.01382589       0.06477070      -0.01323000       0.01456000      -0.35705000
Si       0.15230216       1.52521937       2.30292287       0.01323000      -0.01456000       0.35705000
2
Lattice="2.66310138 -0.02786328 0.02992206 -1.26468693 2.36311061 -0.03457348 0.0480014 0.03535255 4.64973524" Properties=species:S:1:pos:R:3:dft_force:R:3 config_type=hcp Minim_Constant_Volume=T dft_virial="0.04209403 -0.04240295 -0.11743845 -0.04240295 -0.22641443 0.04080427 -0.11743845 0.04080427 0.1705071" dft_energy=-325.22909201 cutoff=-1.0 nneightol=1.2 pbc="T T T"
Si       0.04967087      -0.01382627       0.06476685      -0.00262000       0.01279000      -0.13542000
Si       0.15230277       1.52521947       2.30292080       0.00262000      -0.01279000       0.13542000
2
Lattice="2.70590336 -0.06335958 -0.02092676 -1.27728245 2.31670872 0.01411342 -0.05510885 -0.03478404 4.58526217" Properties=species:S:1:pos:R:3:dft_force:R:3 config_type=hcp Minim_Constant_Volume=T dft_virial="0.24137124 -0.16821147 -0.02787216 -0.16821147 0.39274134 0.00053265 -0.02787216 0.00053265 0.5013562" dft_energy=-325.22631113 cutoff=-1.0 nneightol=1.2 pbc="T T T"
Si       0.04967070      -0.01382563       0.06476680      -0.06151000      -0.02530000      -0.13643000
Si       0.15230224       1.52521985       2.30292167       0.06151000       0.02530000       0.13643000
2
Lattice="2.6413135 -0.02626778 0.06315541 -1.33849225 2.27254362 -0.07158334 -0.00991094 0.01949754 4.69022514" Properties=species:S:1:pos:R:3:dft_force:R:3 config_type=hcp Minim_Constant_Volume=T dft_virial="0.63964271 0.15627051 -0.10889599 0.15627051 0.93743542 0.05859369 -0.10889599 0.05859369 0.49692567" dft_energy=-325.21896463 cutoff=-1.0 nneightol=1.2 pbc="T T T"
Si       0.04967110      -0.01382580       0.06477051      -0.05843000      -0.03194000      -0.20601000
Si       0.15230058       1.52521994       2.30292292       0.05843000       0.03194000       0.20601000
2
Lattice="2.65477176 -0.0875601 0.00750545 -1.31915183 2.43092356 0.00482545 0.00199451 -0.07915736 4.8337393" Properties=species:S:1:pos:R:3:dft_force:R:3 config_type=hcp Minim_Constant_Volume=T dft_virial="-0.33828593 -0.07568045 -0.03987691 -0.07568045 -0.66842304 0.08376923 -0.03987691 0.08376923 -0.40692534" dft_energy=-325.19692658 cutoff=-1.0 nneightol=1.2 pbc="T T T"
Si       0.04967235      -0.01382660       0.06477107      -0.06014000      -0.00925000      -0.27662000
Si       0.15230115       1.52521940       2.30292284       0.06014000       0.00925000       0.27662000
2
Lattice="2.61836358 -0.03139442 -0.05482282 -1.31035323 2.37603603 -0.02064778 0.11860281 0.044253 4.57550967" Properties=species:S:1:pos:R:3:dft_force:R:3 config_type=hcp Minim_Constant_Volume=T dft_virial="0.65866637 -0.19400038 -0.00133353 -0.19400038 0.00626051 0.02609738 -0.00133353 0.02609738 0.46772675" dft_energy=-325.22277635 cutoff=-1.0 nneightol=1.2 pbc="T T T"
Si       0.04967025      -0.01382523       0.06476765      -0.02541000       0.01325000      -0.05150000
Si       0.15230022       1.52522006       2.30292260       0.02541000      -0.01325000       0.05150000
2
Lattice="2.66488196 0.09215617 0.01269768 -1.33413096 2.34320156 -0.0222696 -0.10774363 -0.04671067 4.56431197" Properties=species:S:1:pos:R:3:dft_force:R:3 config_type=hcp Minim_Constant_Volume=T dft_virial="-0.02653893 -0.05742734 0.03306306 -0.05742734 -0.01990923 0.03066474 0.03306306 0.03066474 0.00178699" dft_energy=-325.23276232 cutoff=-1.0 nneightol=1.2 pbc="T T T"
Si       0.04967149      -0.01382715       0.06476867      -0.07327000      -0.01258000      -0.09307000
Si       0.15230249       1.52521912       2.30292089       0.07327000       0.01258000       0.09307000
2
Lattice="2.70481943 0.05719303 0.02055031 -1.35218829 2.26198526 -0.07695973 -0.0734889 -0.04281207 4.64995" Properties=species:S:1:pos:R:3:dft_force:R:3 config_type=hcp Minim_Constant_Volume=T dft_virial="0.07230504 -0.21131058 -0.18216368 -0.21131058 0.13172466 0.10241164 -0.18216368 0.10241164 0.21647823" dft_energy=-325.23514293 cutoff=-1.0 nneightol=1.2 pbc="T T T"
Si       0.04967189      -0.01382652       0.06477102      -0.09551000      -0.03469000      -0.07932000
Si       0.15230070       1.52521942       2.30291966       0.09551000       0.03469000       0.07932000
2
Lattice="2.77592116 -0.01008261 0.02569528 -1.4386406 2.28213556 -0.07513197 -0.09245931 -0.10763661 4.73489786" Properties=species:S:1:pos:R:3:dft_force:R:3 config_type=hcp Minim_Constant_Volume=T dft_virial="-0.39313229 0.17696536 -0.14903496 0.17696536 -0.24281035 0.11077701 -0.14903496 0.11077701 -0.26759377" dft_energy=-325.22880673 cutoff=-1.0 nneightol=1.2 pbc="T T T"
Si       0.04967157      -0.01382515       0.06477065      -0.13799000      -0.05296000      -0.16693000
Si       0.15229998       1.52522006       2.30292337       0.13799000       0.05296000       0.16693000
