64
Lattice="10.914 0.0 0.0 0.0 10.914 0.0 0.0 0.0 10.914" Properties=species:S:1:pos:R:3:map_shift:I:3:n_neighb:I:1:dft_force:R:3 config_type=liq dft_energy=-10399.005258 dft_virial="30.5488288 -12.07330259 -6.49185899 -12.07330259 18.33527568 8.60475328 -6.49185899 8.60475328 10.95645076" cutoff=-1.0 nneightol=1.2 pbc="T T T"
Si      -1.55564880      -5.03175780       1.22722470        0        0        0        0       0.06512000      -0.06395000       0.84438000
Si      -4.89684990       2.31263290      -1.10534810        0        0        0        0       0.65486000      -1.54094000       1.32340000
Si      -3.22195470      -3.89697470      -4.57706970        0        0        0        0       0.02610000       0.83206000       1.84312000
Si       1.91383540      -2.78840700      -4.49020510        0        0        0        0       1.08140000       1.00432000       0.07694000
Si      -3.23315240      -0.84818150       1.72766440        0        0        0        0       0.11277000      -0.89625000       0.05668000
Si       1.36438100      -0.99019450      -2.72294480        0        0        0        0       2.95130000      -0.15346000       2.66279000
Si      -0.07922470       2.81669600      -3.32667450        0        0        0        0       0.05843000       0.98371000       0.13890000
Si      -5.20205990       4.47303740       3.37955280        0        0        0        0       0.81434000       2.05753000       1.48423000
Si       0.43089560      -4.11308280       2.14287660        0        0        0        0      -0.32384000       0.97903000      -0.58700000
Si       3.49234900      -1.09955280       4.85092370        0        0        0        0      -0.21183000      -0.67530000      -0.32604000
Si       0.43553410       2.27661670       5.30735810        0        0        0        0       1.41551000       3.91952000       0.67772000
Si       2.42390120      -1.28492710       2.66254670        0        0        0        0      -1.32632000       2.42781000       1.26462000
Si       5.15648300       4.31860430      -3.62066490        0        0        0        0      -2.06615000      -0.17770000      -0.18912000
Si      -0.02909670       5.15751980      -2.25356640        0        0        0        0       0.37727000      -0.27652000      -0.82826000
Si       3.77352640       0.33656590      -4.27044080        0        0        0        0       1.16970000       0.88326000      -0.12369000
Si       2.38774310      -4.07606250      -2.54971780        0        0        0        0      -3.36867000       0.76330000       0.38183000
Si      -5.21695750      -3.13936840      -1.47098890        0        0        0        0       0.41311000      -0.61854000      -0.84256000
Si      -1.84018770       2.61120720       3.93097180        0        0        0        0      -0.90050000       1.59473000       2.56393000
Si      -4.98719600       2.78693360       2.10537610        0        0        0        0       1.31733000      -1.19227000      -1.78083000
Si      -5.41623620      -0.91663410       3.07435380        0        0        0        0      -0.24087000      -0.04084000       0.51338000
Si      -0.98412630       3.50218260       1.77626440        0        0        0        0      -0.99240000       3.86663000      -2.36154000
Si      -0.02264660      -2.27709700       0.29838880        0        0        0        0      -1.98821000      -0.27073000       1.77155000
Si      -2.91807620       1.42886090       2.30018010        0        0        0        0      -1.61533000       0.62092000      -0.56359000
Si      -1.98433980       4.99742240      -0.91391650        0        0        0        0       3.84833000      -2.43134000       0.21505000
Si      -0.34479510       1.70542160       2.56688550        0        0        0        0       3.46695000      -4.22587000       0.81065000
Si      -1.08123910      -3.92039610      -3.38179020        0        0        0        0      -0.83042000      -0.66692000       1.26368000
Si       1.88543720      -2.42379200      -0.66871170        0        0        0        0       2.04450000      -0.05540000      -2.56005000
Si      -3.85033910      -5.04249720      -0.96322600        0        0        0        0      -1.61741000       4.31396000      -0.20961000
Si      -5.23826160       4.40405000      -0.38257940        0        0        0        0      -2.58754000      -1.79782000       2.58015000
Si       3.65269750      -4.19749170      -4.86061540        0        0        0        0      -0.95474000      -0.37239000      -1.24312000
Si      -3.36099900      -3.43203830       1.27570470        0        0        0        0      -0.41262000      -0.10176000      -0.11420000
Si       0.66889720       1.73505310      -1.25561200        0        0        0        0       4.15285000       2.29270000      -2.35778000
Si      -3.57432410      -1.71656480       4.38407740        0        0        0        0       0.16649000       0.03466000      -0.68012000
Si       4.60015280       0.54384460      -0.12631860        0        0        0        0       0.03048000      -0.59160000      -4.88748000
Si      -2.13936230       3.03057770      -4.62627000        0        0        0        0      -0.57683000      -0.13714000       0.67725000
Si       3.36517910       2.80115450      -4.30526740        0        0        0        0      -0.37143000      -0.80280000      -0.51994000
Si       1.30949450       3.35569480       0.59505310        0        0        0        0       0.58612000      -0.22992000      -0.09287000
Si      -0.98284940       0.96447020      -0.33647860        0        0        0        0      -2.85613000      -3.31853000       0.48603000
Si       4.22779980      -5.09021320      -2.13917670        0        0        0        0       1.60425000      -0.22128000       0.84965000
Si      -2.91623170       5.03669090       3.90118750        0        0        0        0       0.35385000      -0.15386000       0.09171000
Si       2.66221930       3.01159830       4.18852040        0        0        0        0      -0.75975000       0.64068000       1.76450000
Si      -1.69648310      -2.30103140      -1.52208830        0        0        0        0       0.70606000      -1.72238000       0.17982000
Si      -5.21365050      -4.92808570      -4.97308420        0        0        0        0       1.67373000       0.19742000      -1.49875000
Si      -4.28052540       2.82160730      -3.17285260        0        0        0        0       2.41366000      -1.95435000      -1.09136000
Si      -3.76525360      -1.85501980      -2.94088640        0        0        0        0      -0.76806000      -0.47722000      -0.81816000
Si       3.63273580       5.19749780       3.82932970        0        0        0        0      -1.83430000       0.71116000       0.26767000
Si      -2.54373690       2.49358710      -0.12032680        0        0        0        0      -1.33111000       1.84193000       0.28606000
Si       4.55863590       1.02973590       1.88706330        0        0        0        0      -1.12619000       0.37951000       3.61236000
Si      -0.20201810      -2.90160700      -5.26381130        0        0        0        0      -0.20300000      -2.01159000      -1.63610000
Si      -0.03708580       0.29495080       4.83107120        0        0        0        0      -0.99027000      -2.77567000      -1.16739000
Si       4.03630280      -2.55183510       1.98590050        0        0        0        0       1.25406000      -0.42607000      -2.11116000
Si      -0.83573950      -0.32969010       1.60814520        0        0        0        0      -0.17194000      -2.02250000      -0.27589000
Si       0.38383450      -1.95452280       3.39256230        0        0        0        0      -0.82399000      -0.04435000      -0.27112000
Si       2.73474280      -4.55039590       1.58666640        0        0        0        0      -0.95514000       1.62549000       3.02376000
Si      -4.60138610       0.50721720      -3.93598130        0        0        0        0      -0.97501000      -0.25414000       0.75386000
Si      -2.00821970      -0.30558110      -2.52580520        0        0        0        0       0.97250000       1.39921000      -0.34460000
Si      -5.32751630      -4.08784960       2.67434470        0        0        0        0       1.79531000      -0.19782000       0.28938000
Si       2.25161280       1.62289000       2.43661600        0        0        0        0      -0.06859000      -0.59953000      -1.05431000
Si       2.88198360       0.96320420      -2.20831690        0        0        0        0      -0.49708000       0.19041000       0.97894000
Si      -2.06976370      -3.57183570       4.40747700        0        0        0        0      -0.30534000      -0.32511000      -1.57199000
Si      -3.17657430       0.47831700       5.20652370        0        0        0        0       1.24909000       0.07290000      -0.91934000
Si       4.13827230      -1.76592890      -0.49943560        0        0        0        0       0.07524000       0.24415000       1.67443000
Si       3.45272030       5.06960760       0.09882630        0        0        0        0       0.41621000      -2.62282000      -2.30210000
Si      -0.10134740      -1.03709190      -4.21224740        0        0        0        0      -3.21589000       2.56968000      -0.07832000
64
Lattice="10.914 0.0 0.0 0.0 10.914 0.0 0.0 0.0 10.914" Properties=species:S:1:pos:R:3:map_shift:I:3:n_neighb:I:1:dft_force:R:3 config_type=liq dft_energy=-10400.913348 dft_virial="17.97075413 -4.07070565 11.79037545 -4.07070565 2.78487161 -3.38513737 11.79037545 -3.38513737 1.57900917" cutoff=-1.0 nneightol=1.2 pbc="T T T"
Si      -1.54047840      -4.98483850       1.23963390        0        0        0        0      -2.16772000       0.15629000      -0.35259000
Si      -4.78223100       2.30083490      -1.08173020        0        0        0        0      -0.71225000      -0.21346000       0.44557000
Si      -3.35170030      -3.93458430      -4.24444370        0        0        0        0       2.21644000       2.25451000       0.62171000
Si       1.88014390      -2.73385880      -4.41395990        0        0        0        0       1.50419000       0.52322000       0.20992000
Si      -3.28726410      -0.77616000       1.50358900        0        0        0        0      -0.05428000      -0.98949000       0.33983000
Si       1.35614090      -0.98722590      -2.44417940        0        0        0        0       0.13303000       0.10394000      -0.49094000
Si      -0.11712900       2.85935890      -3.14985680        0        0        0        0       0.21882000       0.67843000      -0.63905000
Si      -5.07693090       4.62183890       3.22279510        0        0        0        0      -0.82898000      -0.12149000       0.00132000
Si       0.23699750      -4.05414720       2.06416480        0        0        0        0       1.81752000       1.06304000      -0.02042000
Si       3.51426430      -0.92408840       4.83624440        0        0        0        0       0.13136000      -0.88068000       0.25077000
Si       0.43804430       2.18693640       5.44671900        0        0        0        0       0.19832000       0.77799000      -0.12267000
Si       2.52783520      -1.21647440       2.79598130        0        0        0        0      -0.96654000       0.55821000      -0.09316000
Si       5.12915440       4.11244980      -3.65556790        0        0        0        0       1.13893000       1.23196000      -0.72381000
Si      -0.08587130       5.17419640      -2.23864690        0        0        0        0       2.81982000      -0.15118000      -2.37192000
Si       3.66166880       0.60321680      -4.38931610        0        0        0        0       1.08551000       0.91873000       0.41766000
Si       2.41515910      -4.15155460      -2.54274370        0        0        0        0      -1.00759000      -1.04099000      -0.05129000
Si      -5.06311370      -3.20871600      -1.77511840        0        0        0        0      -3.94925000       3.41759000      -0.27001000
Si      -1.94402350       2.91744320       4.05061100        0        0        0        0       0.24945000       0.44487000       0.01011000
Si      -4.98430370       2.48687490       2.18547390        0        0        0        0       0.40785000       0.92605000      -0.01015000
Si      -5.46069990      -0.80747230       3.18044870        1        0        0        0      -1.18555000      -0.29879000      -0.05814000
Si      -1.22576230       3.71012700       1.71731790        0        0        0        0       0.45120000      -1.51929000      -0.02672000
Si      -0.18539610      -2.20736740       0.42667190        0        0        0        0       1.34987000      -1.07464000      -0.01402000
Si      -2.89058380       1.44122640       2.39401860        0        0        0        0      -0.88462000       0.48994000       0.17276000
Si      -1.73496580       4.94117160      -0.92367370        0        0        0        0      -2.66524000      -0.46777000       1.83729000
Si      -0.39948510       1.39378330       2.77116280        0        0        0        0       1.52734000       1.56445000       1.34379000
Si      -1.19880470      -4.16508800      -3.61901690        0        0        0        0       0.72943000      -0.42027000       1.52589000
Si       2.05745270      -2.57274630      -0.86194410        0        0        0        0      -1.41747000       0.12568000       0.55090000
Si      -3.92662800      -4.79132240      -1.21397510        0        0        0        0       3.86872000      -3.21690000       2.22556000
Si      -5.26581950       4.43510030      -0.37356440        0        0        0        0       0.04285000      -0.48615000       1.62148000
Si       3.79624940      -4.06445000      -4.88354570        0        0        0        0      -1.84804000       0.18236000      -1.09851000
Si      -3.51724390      -3.46577340       1.27089160        0        0        0        0       0.39889000       0.06483000      -0.53824000
Si       1.00060640       1.61909190      -1.37717220        0        0        0        0      -2.11586000       1.50118000       1.26510000
Si      -3.60976180      -1.66311900       4.12548110        0        0        0        0       1.14228000      -0.08753000      -0.17495000
Si       4.88684170       0.42207710      -0.50621320        0        0        0        0      -1.18187000       0.57408000       0.42112000
Si      -2.13697210       3.40168640      -4.58171900        0        0        0        0      -0.20486000      -0.21653000       1.32032000
Si       3.27973340       3.04514790      -4.09058900        0        0        0        0      -2.29773000      -1.64645000      -1.43451000
Si       1.37707390       3.25345250       0.63140760        0        0        0        0       0.25478000       0.02140000      -0.62407000
Si      -1.07525820       0.95297770      -0.23914760        0        0        0        0       0.97937000      -1.00325000      -1.80235000
Si       4.54123900      -5.21488380      -2.11692310        0        0        0        0      -1.17392000       0.77203000      -0.05929000
Si      -2.99025050       5.35444110       3.84207720        0        0        0        0       0.67737000      -0.54240000       0.18155000
Si       2.76331570       3.03983280       4.23292940        0        0        0        0      -0.73264000       0.46661000       1.41467000
Si      -1.46059880      -2.57146940      -1.50065320        0        0        0        0      -0.45191000      -0.21691000      -1.13122000
Si      -5.10413950      -4.85726480      -4.93154550        0        0        0        0      -0.60511000      -2.49413000      -1.51016000
Si      -4.14036780       2.65012660      -3.19376380        0        0        0        0       1.43402000      -0.39072000      -1.26063000
Si      -3.68220900      -1.88094060      -2.91125490        0        0        0        0       0.80584000       1.35529000      -1.01876000
Si       3.61878770       5.34911510       3.87426260        0        0        0        0      -0.49250000       0.12109000      -0.20301000
Si      -2.76382860       2.41265970      -0.16224750        0        0        0        0       1.38879000       1.82028000       1.30365000
Si       4.30770120       0.88441600       1.95657460        0        0        0        0      -0.17712000      -0.01292000      -1.22667000
Si      -0.11631050      -3.13343120      -5.41529760        0        0        0        0       1.21761000       0.08806000       0.73417000
Si      -0.46225160      -0.03847190       4.91413760        0        0        0        0      -0.88555000       3.03710000      -4.20470000
Si       4.08523030      -2.56519380       1.62997320        0        0        0        0      -0.36605000       0.61863000      -0.33403000
Si      -0.91054410      -0.37122880       1.64250240        0        0        0        0      -0.57407000      -2.58991000      -0.90435000
Si       0.37755890      -2.11023280       3.34576310        0        0        0        0      -0.17532000       0.66562000       0.03601000
Si       2.57690450      -4.47096380       1.56441280        0        0        0        0       0.25530000       0.08852000       1.06920000
Si      -4.82542870       0.42418350      -3.63393630        0        0        0        0       0.12417000      -0.75670000      -0.84806000
Si      -1.68015570      -0.28462620      -2.46128160        0        0        0        0      -0.02428000      -0.61384000       0.40871000
Si      -5.34388730      -3.89666910       2.76716830        0        0        0        0       1.23095000      -0.01920000       0.58095000
Si       2.12485760       1.72180350       2.39734740        0        0        0        0      -0.33214000      -0.07530000      -0.21632000
Si       2.89803810       0.86055800      -2.17042350        0        0        0        0       1.88348000      -0.53306000      -0.02665000
Si      -2.01388400      -3.48660830       4.48749850        0        0        0        0      -2.63845000      -0.23164000      -0.93063000
Si      -3.06430190       0.45111930       5.32093520        0        0        0        0       0.18225000      -0.43726000      -0.29018000
Si       4.15817940      -1.74401350      -0.62645270        0        0        0        0       1.50019000      -1.00479000       0.40572000
Si       3.49667100       4.98666120       0.05300930        0        0        0        0      -1.42770000      -0.88321000      -0.01266000
Si      -0.20130870      -1.01914930      -4.24411630        0        0        0        0       0.17864000      -1.97510000       4.37911000
64
Lattice="10.914 0.0 0.0 0.0 10.914 0.0 0.0 0.0 10.914" Properties=species:S:1:pos:R:3:map_shift:I:3:n_neighb:I:1:dft_force:R:3 config_type=liq dft_energy=-10399.914693 dft_virial="-5.20578153 -5.7159981 15.91783043 -5.7159981 0.97653639 -0.75525132 15.91783043 -0.75525132 -1.81468848" cutoff=-1.0 nneightol=1.2 pbc="T T T"
Si      -1.73646110      -4.93770100       1.18981150        0        0        0        0      -0.62559000       0.73839000       0.76968000
Si      -4.82470830       2.32723590      -1.04272360        0        0        0        0      -0.91216000       0.39557000      -1.34167000
Si      -3.32431710      -3.84464200      -3.93777120        0        0        0        0      -0.42974000       0.10581000      -0.59456000
Si       2.11296130      -2.56830430      -4.40193270        0        0        0        0      -0.09159000       0.42745000       0.62712000
Si      -3.30498840      -0.69570200       1.44492630        0        0        0        0      -0.83744000      -0.85149000       0.24465000
Si       1.52216470      -0.98823000      -2.17280280        0        0        0        0      -0.85173000       0.75678000      -2.07503000
Si      -0.08480180       3.06832920      -3.12993870        0        0        0        0       0.50683000      -1.44678000       0.11246000
Si      -5.08926370       4.87666990       3.04096780        0        0        0        0      -0.45776000      -0.41186000       0.23924000
Si       0.13584660      -3.87870460       1.95225270        0        0        0        0       0.72863000      -2.27332000      -0.55047000
Si       3.70209430      -0.64773500       4.81196080        0        0        0        0      -0.08650000      -1.63222000       0.53008000
Si       0.42157510       2.25335900       5.66419140        0        0       -1        0       0.15001000       0.12422000      -1.00925000
Si       2.51376700      -1.02698560       3.01704430        0        0        0        0      -1.13569000      -0.54956000      -1.94567000
Si       5.12132900       3.90470180      -3.75007220        0        0        0        0       1.25911000       0.62883000       0.19671000
Si      -0.05417710       5.19112400      -2.45253950        0        0        0        0       3.52128000      -0.92708000       2.65414000
Si       3.75215680       0.81940130      -4.51929100        0        0        0        0       0.20287000       1.84744000       2.08661000
Si       2.31946510      -4.40422460      -2.46563630        0        0        0        0      -0.35770000      -1.03169000      -0.36950000
Si      -5.36423100      -2.91141860      -2.05775830        0        0        0        0      -0.33821000      -0.49939000       0.26904000
Si      -2.14139230       3.31037990       4.22418730        0        0        0        0       0.41331000      -0.19391000      -1.08957000
Si      -4.97102140       2.35650720       2.29541060        0        0        0        0      -0.60896000       0.84130000      -0.05268000
Si      -5.51378550      -0.73707700       3.22602560        1        0        0        0      -0.55213000      -0.18267000      -0.45283000
Si      -1.37242460       3.78399290       1.70415560        0        0        0        0       0.45207000      -1.63369000       0.33085000
Si      -0.21470020      -2.30158800       0.37955620        0        0        0        0       1.90594000      -0.12408000      -0.76554000
Si      -2.76049980       1.51173090       2.39674710        0        0        0        0       0.02775000       0.73169000       0.39258000
Si      -1.70777910       4.84094840      -0.85543930        0        0        0        0      -0.71271000      -0.55095000       0.02282000
Si      -0.15243580       1.08108630       3.09212170        0        0        0        0      -0.07727000       0.43012000      -0.88118000
Si      -1.21554670      -4.56411470      -3.68676010        0        0        0        0      -1.04961000       2.27991000      -2.48997000
Si       1.98544210      -2.72196250      -0.93230660        0        0        0        0      -0.73849000      -0.78455000       1.57775000
Si      -3.72169580      -4.73419850      -1.36256920        0        0        0        0       0.19810000       0.37147000       0.91829000
Si      -5.22157410       4.38293140      -0.07989050        0        0        0        0      -0.32222000       0.67135000       0.78607000
Si       3.88240450      -3.83234200      -5.07920100        0        0        0        0       0.92228000      -1.17183000      -0.90050000
Si      -3.68725120      -3.61219570       1.05966210        0        0        0        0       0.11492000       0.48399000      -0.83235000
Si       1.10754180       1.75857280      -1.23952480        0        0        0        0      -0.88695000      -0.00032000      -0.72871000
Si      -3.52056170      -1.51843210       3.90741940        0        0        0        0       1.32018000      -0.26618000       0.06840000
Si       5.05052990       0.30018960      -0.76477670        0        0        0        0      -0.26051000       0.56883000       0.39462000
Si      -2.14567060       3.68644360      -4.43303760        0        0        0        0       0.64628000       0.43083000       0.92128000
Si       2.94665990       3.19406940      -3.98562910        0        0        0        0      -0.69282000      -1.01890000      -1.12749000
Si       1.48931350       3.19126450       0.53115160        0        0        0        0      -0.49098000       1.59846000      -1.11421000
Si      -1.08815850       0.83436440      -0.45021340        0        0        0        0       0.54247000       0.71671000       1.38161000
Si       4.71972660      -5.17597540      -2.06537630        0        0        0        0      -0.65941000      -0.54088000      -0.48234000
Si      -2.86642020       5.66654880       3.71796320        0       -1        0        0      -1.42072000      -3.49202000      -1.49260000
Si       2.90917040       3.08349970       4.21583810        0        0        0        0      -0.48971000       0.10754000       0.82382000
Si      -1.33051480      -2.90613630      -1.41800140        0        0        0        0      -1.20931000      -0.13797000      -1.90140000
Si      -4.98685760      -5.11279430      -5.05726380        0        0        0        0      -0.33730000      -0.07494000      -0.32275000
Si      -3.79612930       2.35672550      -3.46753060        0        0        0        0      -1.63996000      -0.39179000       0.70573000
Si      -3.61285050      -1.69911330      -3.00984110        0        0        0        0       0.43077000       0.90364000       0.19110000
Si       3.46641740       5.40721030       3.97581740        0        0        0        0       0.01893000       0.52136000      -0.90196000
Si      -2.86635470       2.49646840      -0.15422570        0        0        0        0       3.33706000       0.50001000       1.31667000
Si       4.04826450       0.71342630       1.86008390        0        0        0        0       0.62968000       0.51951000      -0.71770000
Si       0.14156550      -3.37887620      -5.52824660        0        0        1        0      -0.17585000       0.10064000       1.12987000
Si      -0.95686310      -0.21084760       4.82865920        0        0        0        0       1.32351000      -0.33775000       0.62191000
Si       4.07251540      -2.62662870       1.27284530        0        0        0        0      -0.66356000      -1.08518000       4.11731000
Si      -1.07352290      -0.77885580       1.76863550        0        0        0        0       0.90425000       1.52125000      -0.20339000
Si       0.31304630      -2.19572220       3.29383430        0        0        0        0       0.09359000       1.90101000       1.74259000
Si       2.42323540      -4.34646780       1.77216080        0        0        0        0       1.42431000      -1.40610000      -0.24722000
Si      -5.05647800       0.17928430      -3.47356600        0        0        0        0       0.28585000       0.54005000      -0.07029000
Si      -1.46636140      -0.40352330      -2.23741370        0        0        0        0      -1.91527000      -1.89476000      -0.24196000
Si      -5.27157110      -3.58379740       2.85601920        0        0        0        0       0.28395000       0.46190000      -0.03385000
Si       2.00900550       1.94476570       2.25406840        0        0        0        0       0.35615000      -0.86576000       1.99788000
Si       3.12132760       0.61565870      -2.07418390        0        0        0        0      -0.24102000       0.90202000      -0.66300000
Si      -2.08811010      -3.49907210       4.58714330        0        0        0        0       0.01736000       3.10416000       1.41908000
Si      -2.99065430       0.48158020       5.49601760        0        0       -1        0      -1.41572000       0.02691000      -0.24694000
Si       4.10752760      -1.74592350      -0.63890560        0        0        0        0       0.22633000       0.18419000      -2.28694000
Si       3.32462270       4.72897070      -0.06129300        0        0        0        0      -0.77306000       0.87177000       0.76062000
Si      -0.25356500      -1.09836310      -3.93385310        0        0        0        0       1.21388000      -0.53753000      -1.21704000
64
Lattice="10.914 0.0 0.0 0.0 10.914 0.0 0.0 0.0 10.914" Properties=species:S:1:pos:R:3:map_shift:I:3:n_neighb:I:1:dft_force:R:3 config_type=liq dft_energy=-10397.128438 dft_virial="2.49297849 4.34376616 3.09549184 4.34376616 -2.81933989 -5.58089996 3.09549184 -5.58089996 -12.79987092" cutoff=-1.0 nneightol=1.2 pbc="T T T"
Si      -2.12672390      -4.89682800       1.13169450        0        0        0        0       3.79792000      -2.09735000       1.42441000
Si      -5.02791610       2.31165070      -1.10649410        0        0        0        0       1.28009000       1.68971000       0.22688000
Si      -3.30523940      -3.73725920      -3.79341170        0        0        0        0      -1.08978000      -0.25448000      -1.22709000
Si       2.38278810      -2.41980840      -4.41651380        0        0        0        0       0.11264000      -0.02056000       0.20116000
Si      -3.43967810      -0.71068690       1.45253330        0        0        0        0      -0.39231000      -0.15587000       0.03720000
Si       1.71574630      -0.87458250      -2.21574940        0        0        0        0      -2.37668000      -3.01584000      -0.78465000
Si       0.03095210       3.07097040      -3.12076010        0        0        0        0      -0.13990000      -0.15486000       1.91801000
Si      -5.20668740       5.07758570       2.90178160        0        0        0        0      -0.17117000      -0.43747000      -0.03339000
Si       0.10305000      -3.94672070       1.89534710        0        0        0        0      -0.15750000      -1.02888000       1.47449000
Si       3.76894250      -0.61369420       4.90816770        0        0        0        0      -0.69135000      -1.30510000       0.83394000
Si       0.34970640       2.37933930       5.78999710        0        0       -1        0       0.48968000      -0.68273000      -2.87352000