1
Lattice="2.835507 0.0 0.0 -1.237404 2.349267 0.0 -0.080202 -0.087109 2.447022" Properties=species:S:1:pos:R:3:dft_force:R:3 config_type=sh dft_energy=-162.78192 dft_virial="-0.904828 -0.109712 0.17244 -0.109712 -0.77309 0.253997 0.17244 0.253997 0.138001" cutoff=-1.0 nneightol=1.2 pbc="T T T"
Si       0.00000000       0.00000000       0.00000000       0.00000000       0.00000000       0.00000000
1
Lattice="2.870026 0.0 0.0 -1.060744 2.535586 0.0 -0.025523 -0.169392 2.473255" Properties=species:S:1:pos:R:3:dft_force:R:3 config_type=sh dft_energy=-162.666465 dft_virial="-1.51835 -0.00250994 -0.0128037 -0.00250994 -1.42032 0.430646 -0.0128037 0.430646 -0.305557" cutoff=-1.0 nneightol=1.2 pbc="T T T"
Si       0.00000000       0.00000000       0.00000000       0.00000000       0.00000000       0.00000000
1
Lattice="2.726695 0.0 0.0 -0.783866 2.372258 0.0 -0.24923 -0.100584 2.528603" Properties=species:S:1:pos:R:3:dft_force:R:3 config_type=sh dft_energy=-162.748051 dft_virial="-0.642258 -0.245457 0.377939 -0.245457 0.0282488 0.138726 0.377939 0.138726 -0.455127" cutoff=-1.0 nneightol=1.2 pbc="T T T"
Si       0.00000000       0.00000000       0.00000000       0.00000000       0.00000000       0.00000000
1
Lattice="2.780683 0.0 0.0 -0.860945 2.313895 0.0 0.033733 -0.343274 2.515576" Properties=species:S:1:pos:R:3:dft_force:R:3 config_type=sh dft_energy=-162.699367 dft_virial="-0.737726 -0.316521 -0.200265 -0.316521 0.276168 0.709169 -0.200265 0.709169 -0.250948" cutoff=-1.0 nneightol=1.2 pbc="T T T"
Si       0.00000000       0.00000000       0.00000000       0.00000000       0.00000000       0.00000000
1
Lattice="2.760424 0.0 0.0 -1.222788 2.177662 0.0 -0.337363 -0.402422 2.545846" Properties=species:S:1:pos:R:3:dft_force:R:3 config_type=sh dft_energy=-162.704259 dft_virial="0.0105322 -0.251142 0.386667 -0.251142 0.233376 0.592384 0.386667 0.592384 -0.405374" cutoff=-1.0 nneightol=1.2 pbc="T T T"
Si       0.00000000       0.00000000       0.00000000       0.00000000       0.00000000       0.00000000
1
Lattice="2.928066 0.0 0.0 -1.380244 2.181175 0.0 -0.180608 -0.276321 2.545662" Properties=species:S:1:pos:R:3:dft_force:R:3 config_type=sh dft_energy=-162.746046 dft_virial="-0.490427 -0.0861054 0.253438 -0.0861054 -0.429788 0.650441 0.253438 0.650441 -0.576057" cutoff=-1.0 nneightol=1.2 pbc="T T T"
Si       0.00000000       0.00000000       0.00000000       0.00000000       0.00000000       0.00000000
1
Lattice="2.919686 0.0 0.0 -1.28945 2.136616 0.0 -0.123473 -0.147916 2.397894" Properties=species:S:1:pos:R:3:dft_force:R:3 config_type=sh dft_energy=-162.765282 dft_virial="-0.13973 -0.320631 0.139358 -0.320631 0.407682 0.390799 0.139358 0.390799 1.0178" cutoff=-1.0 nneightol=1.2 pbc="T T T"
Si       0.00000000       0.00000000       0.00000000       0.00000000       0.00000000       0.00000000
1
Lattice="2.76585 0.0 0.0 -1.448181 2.280093 0.0 -0.22051 -0.26494 2.485558" Properties=species:S:1:pos:R:3:dft_force:R:3 config_type=sh dft_energy=-162.758977 dft_virial="-0.465101 0.123959 0.463768 0.123959 -0.307521 0.657752 0.463768 0.657752 -0.0883257" cutoff=-1.0 nneightol=1.2 pbc="T T T"
Si       0.00000000       0.00000000       0.00000000       0.00000000       0.00000000       0.00000000
1
Lattice="2.583479 0.0 0.0 -1.057598 2.355295 0.0 -0.478339 -0.085244 2.352626" Properties=species:S:1:pos:R:3:dft_force:R:3 config_type=sh dft_energy=-162.684201 dft_virial="0.401268 -0.0146435 0.435379 -0.0146435 0.0880212 -0.00807381 0.435379 -0.00807381 1.43645" cutoff=-1.0 nneightol=1.2 pbc="T T T"
Si       0.00000000       0.00000000       0.00000000       0.00000000       0.00000000       0.00000000
1
Lattice="2.747457 0.0 0.0 -1.116621 2.186792 0.0 -0.327101 -0.036209 2.405453" Properties=species:S:1:pos:R:3:dft_force:R:3 config_type=sh dft_energy=-162.737901 dft_virial="0.135393 -0.41881 0.59576 -0.41881 0.805479 -0.0964051 0.59576 -0.0964051 0.969778" cutoff=-1.0 nneightol=1.2 pbc="T T T"
Si       0.00000000       0.00000000       0.00000000       0.00000000       0.00000000       0.00000000
1
Lattice="2.810119 0.0 0.0 -1.22471 2.310971 0.0 -0.080202 -0.087109 2.427752" Properties=species:S:1:pos:R:3:dft_force:R:3 config_type=sh dft_energy=-162.79672 dft_virial="-0.64811 -0.1536 0.162619 -0.1536 -0.471826 0.256767 0.162619 0.256767 0.42461" cutoff=-1.0 nneightol=1.2 pbc="T T T"
Si       0.00000000       0.00000000       0.00000000       0.00000000       0.00000000       0.00000000
1
Lattice="2.772008 0.0 0.0 -1.089616 2.545506 0.0 0.132499 0.134735 2.503209" Properties=species:S:1:pos:R:3:dft_force:R:3 config_type=sh dft_energy=-162.704527 dft_virial="-1.34477 0.018426 -0.303343 0.018426 -1.34231 -0.277827 -0.303343 -0.277827 -0.49056" cutoff=-1.0 nneightol=1.2 pbc="T T T"
Si       0.00000000       0.00000000       0.00000000       0.00000000       0.00000000       0.00000000
1
Lattice="2.602882 0.0 0.0 -1.531704 2.455091 0.0 0.238985 0.18623 2.517647" Properties=species:S:1:pos:R:3:dft_force:R:3 config_type=sh dft_energy=-162.753907 dft_virial="-0.353042 0.0142797 -0.654771 0.0142797 -0.552066 -0.415383 -0.654771 -0.415383 -0.375263" cutoff=-1.0 nneightol=1.2 pbc="T T T"
Si       0.00000000       0.00000000       0.00000000       0.00000000       0.00000000       0.00000000
1
Lattice="2.656869 0.0 0.0 -1.475597 2.290181 0.0 0.134944 0.067336 2.447591" Properties=species:S:1:pos:R:3:dft_force:R:3 config_type=sh dft_energy=-162.811738 dft_virial="0.0848972 0.172293 -0.412951 0.172293 0.154631 -0.258536 -0.412951 -0.258536 0.385235" cutoff=-1.0 nneightol=1.2 pbc="T T T"
Si       0.00000000       0.00000000       0.00000000       0.00000000       0.00000000       0.00000000
1
Lattice="2.645707 0.0 0.0 -1.58019 2.214901 0.0 -0.236152 -0.011458 2.484996" Properties=species:S:1:pos:R:3:dft_force:R:3 config_type=sh dft_energy=-162.769847 dft_virial="0.429152 0.395675 0.539834 0.395675 0.87228 0.184505 0.539834 0.184505 0.162502" cutoff=-1.0 nneightol=1.2 pbc="T T T"
Si       0.00000000       0.00000000       0.00000000       0.00000000       0.00000000       0.00000000
1
Lattice="2.846061 0.0 0.0 -1.570505 2.218414 0.0 -0.079398 -0.009422 2.484811" Properties=species:S:1:pos:R:3:dft_force:R:3 config_type=sh dft_energy=-162.811399 dft_virial="-0.421953 0.202285 0.197957 0.202285 -0.106266 0.0736814 0.197957 0.0736814 -0.123919" cutoff=-1.0 nneightol=1.2 pbc="T T T"
Si       0.00000000       0.00000000       0.00000000       0.00000000       0.00000000       0.00000000
1
Lattice="2.849544 0.0 0.0 -1.378096 2.16173 0.0 -0.037303 0.09403 2.364586" Properties=species:S:1:pos:R:3:dft_force:R:3 config_type=sh dft_energy=-162.776422 dft_virial="-0.0441615 -0.114454 0.0918817 -0.114454 0.465113 -0.317976 0.0918817 -0.317976 1.52685" cutoff=-1.0 nneightol=1.2 pbc="T T T"
Si       0.00000000       0.00000000       0.00000000       0.00000000       0.00000000       0.00000000
1
Lattice="2.693602 0.0 0.0 -1.521822 2.305207 0.0 -0.13434 -0.364896 2.413779" Properties=species:S:1:pos:R:3:dft_force:R:3 config_type=sh dft_energy=-162.732554 dft_virial="-0.289937 0.198316 0.315634 0.198316 0.0305424 0.662355 0.315634 0.662355 0.74974" cutoff=-1.0 nneightol=1.2 pbc="T T T"
Si       0.00000000       0.00000000       0.00000000       0.00000000       0.00000000       0.00000000
1
Lattice="2.687019 0.0 0.0 -1.94626 2.294265 0.0 -0.12542 -0.438821 2.469151" Properties=species:S:1:pos:R:3:dft_force:R:3 config_type=sh dft_energy=-162.666997 dft_virial="-0.375439 0.30137 0.220736 0.30137 1.07086 0.48678 0.220736 0.48678 0.355616" cutoff=-1.0 nneightol=1.2 pbc="T T T"
Si       0.00000000       0.00000000       0.00000000       0.00000000       0.00000000       0.00000000
1
Lattice="2.752783 0.0 0.0 -1.723684 2.216303 0.0 0.143858 -0.427701 2.474549" Properties=species:S:1:pos:R:3:dft_force:R:3 config_type=sh dft_energy=-162.697939 dft_virial="-0.143949 0.453274 -0.00835335 0.453274 0.556217 0.705857 -0.00835335 0.705857 0.209673" cutoff=-1.0 nneightol=1.2 pbc="T T T"
Si       0.00000000       0.00000000       0.00000000       0.00000000       0.00000000       0.00000000
1
Lattice="2.717949 0.0 0.0 -1.462076 2.070281 0.0 0.048237 0.158349 2.443939" Properties=species:S:1:pos:R:3:dft_force:R:3 config_type=sh dft_energy=-162.725876 dft_virial="0.984348 0.356673 -0.147391 0.356673 1.82225 -0.507813 -0.147391 -0.507813 0.817775" cutoff=-1.0 nneightol=1.2 pbc="T T T"
Si       0.00000000       0.00000000       0.00000000       0.00000000       0.00000000       0.00000000
1
Lattice="2.584115 0.0 0.0 -1.451492 2.145876 0.0 -0.120985 0.182363 2.511189" Properties=species:S:1:pos:R:3:dft_force:R:3 config_type=sh dft_energy=-162.733693 dft_virial="1.14063 0.359657 0.191406 0.359657 1.66957 -0.452254 0.191406 -0.452254 0.0362933" cutoff=-1.0 nneightol=1.2 pbc="T T T"
Si       0.00000000       0.00000000       0.00000000       0.00000000       0.00000000       0.00000000
1
Lattice="2.673717 0.0 0.0 -1.485105 2.090817 0.0 0.037349 0.038129 2.552517" Properties=species:S:1:pos:R:3:dft_force:R:3 config_type=sh dft_energy=-162.744771 dft_virial="0.959168 0.443484 -0.103824 0.443484 1.78133 -0.141732 -0.103824 -0.141732 -0.379547" cutoff=-1.0 nneightol=1.2 pbc="T T T"
Si       0.00000000       0.00000000       0.00000000       0.00000000       0.00000000       0.00000000
1
Lattice="2.877822 0.0 0.0 -1.46538 2.210514 0.0 0.042547 0.130783 2.471586" Properties=species:S:1:pos:R:3:dft_force:R:3 config_type=sh dft_energy=-162.803822 dft_virial="-0.48609 0.0580049 -0.113498 0.0580049 -0.248403 -0.43879 -0.113498 -0.43879 0.0337196" cutoff=-1.0 nneightol=1.2 pbc="T T T"
Si       0.00000000       0.00000000       0.00000000       0.00000000       0.00000000       0.00000000
1
Lattice="2.613552 0.0 0.0 -1.163787 2.228628 0.0 -0.237056 0.12535 2.542782" Properties=species:S:1:pos:R:3:dft_force:R:3 config_type=sh dft_energy=-162.769283 dft_virial="0.401548 -0.231479 0.56603 -0.231479 0.63217 -0.378035 0.56603 -0.378035 -0.340964" cutoff=-1.0 nneightol=1.2 pbc="T T T"
Si       0.00000000       0.00000000       0.00000000       0.00000000       0.00000000       0.00000000
1
Lattice="2.874542 0.0 0.0 -1.086554 2.297744 0.0 -0.336792 -0.227412 2.445591" Properties=species:S:1:pos:R:3:dft_force:R:3 config_type=sh dft_energy=-162.719155 dft_virial="-0.719799 -0.183433 0.43631 -0.183433 -0.437415 0.402827 0.43631 0.402827 0.111201" cutoff=-1.0 nneightol=1.2 pbc="T T T"
Si       0.00000000       0.00000000       0.00000000       0.00000000       0.00000000       0.00000000
1
Lattice="2.82024 0.0 0.0 -1.064287 2.207946 0.0 -0.41976 -0.13494 2.410674" Properties=species:S:1:pos:R:3:dft_force:R:3 config_type=sh dft_energy=-162.711887 dft_virial="-0.178241 -0.37052 0.548269 -0.37052 0.478776 0.0754391 0.548269 0.0754391 0.68155" cutoff=-1.0 nneightol=1.2 pbc="T T T"
Si       0.00000000       0.00000000       0.00000000       0.00000000       0.00000000       0.00000000
1
Lattice="2.740352 0.0 0.0 -0.98998 2.215426 0.0 -0.220614 -0.234421 2.378363" Properties=species:S:1:pos:R:3:dft_force:R:3 config_type=sh dft_energy=-162.711684 dft_virial="0.129287 -0.553123 0.188768 -0.553123 0.93979 0.508053 0.188768 0.508053 1.33504" cutoff=-1.0 nneightol=1.2 pbc="T T T"
Si       0.00000000       0.00000000       0.00000000       0.00000000       0.00000000       0.00000000
1
Lattice="2.65439 0.0 0.0 -1.272737 2.273723 0.0 -0.049949 -0.142934 2.315013" Properties=species:S:1:pos:R:3:dft_force:R:3 config_type=sh dft_energy=-162.743183 dft_virial="0.334085 -0.0702797 0.10228 -0.0702797 0.456025 0.419366 0.10228 0.419366 2.36793" cutoff=-1.0 nneightol=1.2 pbc="T T T"
Si       0.00000000       0.00000000       0.00000000       0.00000000       0.00000000       0.00000000
1
Lattice="2.641969 0.0 0.0 -1.251253 2.229762 0.0 -0.066913 0.108807 2.579574" Properties=species:S:1:pos:R:3:dft_force:R:3 config_type=sh dft_energy=-162.801072 dft_virial="0.237949 -0.118844 0.191965 -0.118844 0.423663 -0.319286 0.191965 -0.319286 -0.745262" cutoff=-1.0 nneightol=1.2 pbc="T T T"
Si       0.00000000       0.00000000       0.00000000       0.00000000       0.00000000       0.00000000
1
Lattice="2.556336 0.0 0.0 -1.294715 2.168823 0.0 0.444094 -0.189974 2.453219" Properties=species:S:1:pos:R:3:dft_force:R:3 config_type=sh dft_energy=-162.671933 dft_virial="1.11585 0.0183488 -0.600997 0.0183488 1.2858 0.25365 -0.600997 0.25365 0.662731" cutoff=-1.0 nneightol=1.2 pbc="T T T"
Si       0.00000000       0.00000000       0.00000000       0.00000000       0.00000000       0.00000000
1
Lattice="2.623108 0.0 0.0 -1.152503 2.220247 0.0 0.526037 0.026116 2.384144" Properties=species:S:1:pos:R:3:dft_force:R:3 config_type=sh dft_energy=-162.676607 dft_virial="0.581255 -0.146255 -0.540773 -0.146255 0.799737 0.0375112 -0.540773 0.0375112 1.1189" cutoff=-1.0 nneightol=1.2 pbc="T T T"
Si       0.00000000       0.00000000       0.00000000       0.00000000       0.00000000       0.00000000
1
Lattice="2.735073 0.0 0.0 -1.266444 2.190054 0.0 0.431008 -0.210595 2.457303" Properties=species:S:1:pos:R:3:dft_force:R:3 config_type=sh dft_energy=-162.718406 dft_virial="0.0800895 -0.205521 -0.591424 -0.205521 0.366746 0.387612 -0.591424 0.387612 0.351898" cutoff=-1.0 nneightol=1.2 pbc="T T T"
Si       0.00000000       0.00000000       0.00000000       0.00000000       0.00000000       0.00000000
1
Lattice="2.606819 0.0 0.0 -1.241806 2.285891 0.0 0.315574 -0.192423 2.383682" Properties=species:S:1:pos:R:3:dft_force:R:3 config_type=sh dft_energy=-162.730704 dft_virial="0.398505 -0.110988 -0.582738 -0.110988 0.309702 0.362674 -0.582738 0.362674 1.26308" cutoff=-1.0 nneightol=1.2 pbc="T T T"
Si       0.00000000       0.00000000       0.00000000       0.00000000       0.00000000       0.00000000
1
Lattice="2.728669 0.0 0.0 -1.339133 2.21631 0.0 0.175264 -0.029842 2.545275" Properties=species:S:1:pos:R:3:dft_force:R:3 config_type=sh dft_energy=-162.806776 dft_virial="-0.0549789 -0.0342222 -0.41989 -0.0342222 0.164181 0.0995693 -0.41989 0.0995693 -0.54616" cutoff=-1.0 nneightol=1.2 pbc="T T T"
Si       0.00000000       0.00000000       0.00000000       0.00000000       0.00000000       0.00000000
1
Lattice="2.582303 0.0 0.0 -1.583194 2.315919 0.0 0.20397 -0.161045 2.420459" Properties=species:S:1:pos:R:3:dft_force:R:3 config_type=sh dft_energy=-162.772251 dft_virial="0.452521 0.261018 -0.415538 0.261018 0.431978 0.286715 -0.415538 0.286715 0.8546" cutoff=-1.0 nneightol=1.2 pbc="T T T"
Si       0.00000000       0.00000000       0.00000000       0.00000000       0.00000000       0.00000000
1
Lattice="2.539562 0.0 0.0 -1.647119 2.397926 0.0 0.176968 -0.027144 2.4217" Properties=species:S:1:pos:R:3:dft_force:R:3 config_type=sh dft_energy=-162.776474 dft_virial="0.543894 0.214077 -0.440191 0.214077 0.178054 -0.025284 -0.440191 -0.025284 0.845233" cutoff=-1.0 nneightol=1.2 pbc="T T T"
Si       0.00000000       0.00000000       0.00000000       0.00000000       0.00000000       0.00000000
1
Lattice="2.630418 0.0 0.0 -1.174181 2.273294 0.0 0.2849 -0.05684 2.516605" Properties=species:S:1:pos:R:3:dft_force:R:3 config_type=sh dft_energy=-162.779422 dft_virial="0.129937 -0.138226 -0.666183 -0.138226 0.201822 0.229187 -0.666183 0.229187 -0.162591" cutoff=-1.0 nneightol=1.2 pbc="T T T"
Si       0.00000000       0.00000000       0.00000000       0.00000000       0.00000000       0.00000000
1
Lattice="2.716348 0.0 0.0 -1.268276 2.19316 0.0 0.30507 0.105294 2.358523" Properties=species:S:1:pos:R:3:dft_force:R:3 config_type=sh dft_energy=-162.732649 dft_virial="0.337617 -0.100943 -0.54339 -0.100943 0.612919 -0.194919 -0.54339 -0.194919 1.65932" cutoff=-1.0 nneightol=1.2 pbc="T T T"
Si       0.00000000       0.00000000       0.00000000       0.00000000       0.00000000       0.00000000
1
Lattice="2.637156 0.0 0.0 -1.263329 2.197558 0.0 -0.060003 0.021101 2.417446" Properties=species:S:1:pos:R:3:dft_force:R:3 config_type=sh dft_energy=-162.797575 dft_virial="0.667108 -0.112964 0.164064 -0.112964 0.946042 -0.0859402 0.164064 -0.0859402 0.968765" cutoff=-1.0 nneightol=1.2 pbc="T T T"
Si       0.00000000       0.00000000       0.00000000       0.00000000       0.00000000       0.00000000
1
Lattice="2.527098 0.0 0.0 -1.326639 2.25434 0.0 -0.026962 0.073102 2.41713" Properties=species:S:1:pos:R:3:dft_force:R:3 config_type=sh dft_energy=-162.781603 dft_virial="1.1957 0.123014 0.0650238 0.123014 0.916243 -0.189578 0.0650238 -0.189578 1.04692" cutoff=-1.0 nneightol=1.2 pbc="T T T"
Si       0.00000000       0.00000000       0.00000000       0.00000000       0.00000000       0.00000000
1
Lattice="2.472776 0.0 0.0 -1.205524 2.301515 0.0 0.048194 -0.043532 2.469249" Properties=species:S:1:pos:R:3:dft_force:R:3 config_type=sh dft_energy=-162.78679 dft_virial="1.39081 -0.0485961 -0.158862 -0.0485961 0.711622 0.103685 -0.158862 0.103685 0.389271" cutoff=-1.0 nneightol=1.2 pbc="T T T"
Si       0.00000000       0.00000000       0.00000000       0.00000000       0.00000000       0.00000000
1
Lattice="2.451781 0.0 0.0 -1.402094 2.33842 0.0 0.148722 -0.22516 2.453896" Properties=species:S:1:pos:R:3:dft_force:R:3 config_type=sh dft_energy=-162.746901 dft_virial="1.41885 0.173261 -0.380034 0.173261 0.620741 0.386144 -0.380034 0.386144 0.540649" cutoff=-1.0 nneightol=1.2 pbc="T T T"
Si       0.00000000       0.00000000       0.00000000       0.00000000       0.00000000       0.00000000
1
Lattice="2.381416 0.0 0.0 -1.121421 2.268277 0.0 0.147792 -0.243511 2.340844" Properties=species:S:1:pos:R:3:dft_force:R:3 config_type=sh dft_energy=-162.58302 dft_virial="2.7575 -0.143805 -0.413613 -0.143805 1.58664 0.343079 -0.413613 0.343079 2.36369" cutoff=-1.0 nneightol=1.2 pbc="T T T"
Si       0.00000000       0.00000000       0.00000000       0.00000000       0.00000000       0.00000000
1
Lattice="2.365937 0.0 0.0 -1.344827 2.359089 0.0 0.219001 -0.315528 2.529164" Properties=species:S:1:pos:R:3:dft_force:R:3 config_type=sh dft_energy=-162.666719 dft_virial="2.20105 0.140432 -0.472392 0.140432 0.629698 0.432326 -0.472392 0.432326 -0.0355423" cutoff=-1.0 nneightol=1.2 pbc="T T T"
Si       0.00000000       0.00000000       0.00000000       0.00000000       0.00000000       0.00000000
1
Lattice="2.430104 0.0 0.0 -1.378764 2.342401 0.0 0.214548 0.224077 2.654373" Properties=species:S:1:pos:R:3:dft_force:R:3 config_type=sh dft_energy=-162.695387 dft_virial="1.25613 0.0835862 -0.451633 0.0835862 0.36437 -0.351717 -0.451633 -0.351717 -0.898014" cutoff=-1.0 nneightol=1.2 pbc="T T T"
Si       0.00000000       0.00000000       0.00000000       0.00000000       0.00000000       0.00000000
1
Lattice="2.591078 0.0 0.0 -1.160908 2.306123 0.0 0.30553 0.138269 2.473225" Properties=species:S:1:pos:R:3:dft_force:R:3 config_type=sh dft_energy=-162.770296 dft_virial="0.311727 -0.0780278 -0.677664 -0.0780278 0.136831 -0.214564 -0.677664 -0.214564 0.238217" cutoff=-1.0 nneightol=1.2 pbc="T T T"
Si       0.00000000       0.00000000       0.00000000       0.00000000       0.00000000       0.00000000
1
Lattice="2.533106 0.0 0.0 -1.443005 2.26456 0.0 0.237551 0.123892 2.426358" Properties=species:S:1:pos:R:3:dft_force:R:3 config_type=sh dft_energy=-162.741465 dft_virial="0.985613 0.241753 -0.585236 0.241753 0.857644 -0.333782 -0.585236 -0.333782 0.943603" cutoff=-1.0 nneightol=1.2 pbc="T T T"
Si       0.00000000       0.00000000       0.00000000       0.00000000       0.00000000       0.00000000
1
Lattice="2.643636 0.0 0.0 -1.450837 2.188055 0.0 0.294586 0.319475 2.392985" Properties=species:S:1:pos:R:3:dft_force:R:3 config_type=sh dft_energy=-162.685779 dft_virial="0.576631 0.275999 -0.354882 0.275999 0.968196 -0.500791 -0.354882 -0.500791 1.20307" cutoff=-1.0 nneightol=1.2 pbc="T T T"
Si       0.00000000       0.00000000       0.00000000       0.00000000       0.00000000       0.00000000
1
Lattice="2.414978 0.0 0.0 -1.493144 2.43193 0.0 -0.08399 0.391257 2.396039" Properties=species:S:1:pos:R:3:dft_force:R:3 config_type=sh dft_energy=-162.691919 dft_virial="1.52353 0.197629 0.173689 0.197629 0.357122 -0.452278 0.173689 -0.452278 1.18801" cutoff=-1.0 nneightol=1.2 pbc="T T T"
Si       0.00000000       0.00000000       0.00000000       0.00000000       0.00000000       0.00000000
1
Lattice="2.610265 0.0 0.0 -1.373949 2.115363 0.0 0.011465 -0.041301 2.395856" Properties=species:S:1:pos:R:3:dft_force:R:3 config_type=sh dft_energy=-162.721617 dft_virial="1.39964 0.18888 -0.0114986 0.18888 1.95637 0.124309 -0.0114986 0.124309 1.47642" cutoff=-1.0 nneightol=1.2 pbc="T T T"
Si       0.00000000       0.00000000       0.00000000       0.00000000       0.00000000       0.00000000
1
Lattice="2.627798 0.0 0.0 -1.362891 2.277392 0.0 0.032515 0.005179 2.323889" Properties=species:S:1:pos:R:3:dft_force:R:3 config_type=sh dft_energy=-162.761584 dft_virial="0.507226 0.0758196 -0.0906693 0.0758196 0.529989 -0.0180825 -0.0906693 -0.0180825 2.22133" cutoff=-1.0 nneightol=1.2 pbc="T T T"
Si       0.00000000       0.00000000       0.00000000       0.00000000       0.00000000       0.00000000
1
Lattice="2.438405 0.0 0.0 -1.103593 2.193785 0.0 0.078081 0.101835 2.513728" Properties=species:S:1:pos:R:3:dft_force:R:3 config_type=sh dft_energy=-162.697194 dft_virial="2.21348 -0.234139 -0.172715 -0.234139 1.78486 -0.187059 -0.172715 -0.187059 0.174156" cutoff=-1.0 nneightol=1.2 pbc="T T T"
Si       0.00000000       0.00000000       0.00000000       0.00000000       0.00000000       0.00000000
1
Lattice="2.458233 0.0 0.0 -1.111059 2.215849 0.0 -0.12496 0.156391 2.507253" Properties=species:S:1:pos:R:3:dft_force:R:3 config_type=sh dft_energy=-162.714662 dft_virial="1.8359 -0.230888 0.351967 -0.230888 1.48 -0.37484 0.351967 -0.37484 0.18806" cutoff=-1.0 nneightol=1.2 pbc="T T T"
Si       0.00000000       0.00000000       0.00000000       0.00000000       0.00000000       0.00000000
1
Lattice="2.631471 0.0 0.0 -1.097656 2.194311 0.0 0.283796 0.186864 2.373804" Properties=species:S:1:pos:R:3:dft_force:R:3 config_type=sh dft_energy=-162.709299 dft_virial="0.767188 -0.355438 -0.458546 -0.355438 1.17762 -0.321634 -0.458546 -0.321634 1.52146" cutoff=-1.0 nneightol=1.2 pbc="T T T"
Si       0.00000000       0.00000000       0.00000000       0.00000000       0.00000000       0.00000000
1
Lattice="2.700436 0.0 0.0 -1.316216 2.195671 0.0 0.289313 0.205077 2.366595" Properties=species:S:1:pos:R:3:dft_force:R:3 config_type=sh dft_energy=-162.726555 dft_virial="0.378171 0.00443296 -0.46904 0.00443296 0.609019 -0.424471 -0.46904 -0.424471 1.52328" cutoff=-1.0 nneightol=1.2 pbc="T T T"
Si       0.00000000       0.00000000       0.00000000       0.00000000       0.00000000       0.00000000
1
Lattice="2.480443 0.0 0.0 -1.445563 2.291991 0.0 0.370584 0.031437 2.448353" Properties=species:S:1:pos:R:3:dft_force:R:3 config_type=sh dft_energy=-162.703008 dft_virial="1.31647 0.14867 -0.661646 0.14867 0.764458 -0.107802 -0.661646 -0.107802 0.686167" cutoff=-1.0 nneightol=1.2 pbc="T T T"
Si       0.00000000       0.00000000       0.00000000       0.00000000       0.00000000       0.00000000
1
Lattice="2.764288 0.0 0.0 -1.485568 2.272701 0.0 0.555025 -0.240882 2.33031" Properties=species:S:1:pos:R:3:dft_force:R:3 config_type=sh dft_energy=-162.665059 dft_virial="-0.0937557 -0.0356245 -0.358978 -0.0356245 -0.0731402 0.139222 -0.358978 0.139222 1.25317" cutoff=-1.0 nneightol=1.2 pbc="T T T"
Si       0.00000000       0.00000000       0.00000000       0.00000000       0.00000000       0.00000000
1
Lattice="2.866052 0.0 0.0 -1.461536 2.155521 0.0 0.399626 -0.167212 2.46969" Properties=species:S:1:pos:R:3:dft_force:R:3 config_type=sh dft_energy=-162.74212 dft_virial="-0.188523 -0.0311174 -0.619281 -0.0311174 0.0438107 0.309633 -0.619281 0.309633 0.146229" cutoff=-1.0 nneightol=1.2 pbc="T T T"
Si       0.00000000       0.00000000       0.00000000       0.00000000       0.00000000       0.00000000
1
Lattice="2.731839 0.0 0.0 -1.459978 2.045396 0.0 0.233937 -0.184522 2.46252" Properties=species:S:1:pos:R:3:dft_force:R:3 config_type=sh dft_energy=-162.698121 dft_virial="1.07396 0.288108 -0.322556 0.288108 1.884 0.418355 -0.322556 0.418355 0.596034" cutoff=-1.0 nneightol=1.2 pbc="T T T"
Si       0.00000000       0.00000000       0.00000000       0.00000000       0.00000000       0.00000000
1
Lattice="2.462967 0.0 0.0 -0.932247 2.359675 0.0 -0.153937 -0.136927 2.290829" Properties=species:S:1:pos:R:3:dft_force:R:3 config_type=sh dft_energy=-162.637168 dft_virial="1.6301 -0.335515 0.307922 -0.335515 0.739239 0.140032 0.307922 0.140032 3.19203" cutoff=-1.0 nneightol=1.2 pbc="T T T"
Si       0.00000000       0.00000000       0.00000000       0.00000000       0.00000000       0.00000000
1
Lattice="2.482586 0.0 0.0 -1.335972 2.245486 0.0 0.2118 -0.257739 2.369456" Properties=species:S:1:pos:R:3:dft_force:R:3 config_type=sh dft_energy=-162.67536 dft_virial="1.62911 0.109282 -0.431669 0.109282 1.22468 0.437943 -0.431669 0.437943 1.70647" cutoff=-1.0 nneightol=1.2 pbc="T T T"
Si       0.00000000       0.00000000       0.00000000       0.00000000       0.00000000       0.00000000
1
Lattice="2.559206 0.0 0.0 -1.454898 2.223161 0.0 0.136546 0.17304 2.411394" Properties=species:S:1:pos:R:3:dft_force:R:3 config_type=sh dft_energy=-162.739175 dft_virial="0.984007 0.315475 -0.398488 0.315475 1.18363 -0.479697 -0.398488 -0.479697 1.18549" cutoff=-1.0 nneightol=1.2 pbc="T T T"
Si       0.00000000       0.00000000       0.00000000       0.00000000       0.00000000       0.00000000
1
Lattice="2.57591 0.0 0.0 -1.514049 2.376608 0.0 -0.152103 0.15183 2.319532" Properties=species:S:1:pos:R:3:dft_force:R:3 config_type=sh dft_energy=-162.728794 dft_virial="0.467071 0.187424 0.347647 0.187424 0.107559 -0.273379 0.347647 -0.273379 2.28836" cutoff=-1.0 nneightol=1.2 pbc="T T T"
Si       0.00000000       0.00000000       0.00000000       0.00000000       0.00000000       0.00000000
1
Lattice="2.570933 0.0 0.0 -1.469935 2.138721 0.0 -0.170931 0.028291 2.436921" Properties=species:S:1:pos:R:3:dft_force:R:3 config_type=sh dft_energy=-162.710696 dft_virial="1.45799 0.482762 0.369481 0.482762 1.99283 0.0148869 0.369481 0.0148869 0.882568" cutoff=-1.0 nneightol=1.2 pbc="T T T"
Si       0.00000000       0.00000000       0.00000000       0.00000000       0.00000000       0.00000000
1
Lattice="2.591058 0.0 0.0 -1.488798 2.162265 0.0 0.037715 0.075594 2.424868" Properties=species:S:1:pos:R:3:dft_force:R:3 config_type=sh dft_energy=-162.742815 dft_virial="1.16312 0.455594 -0.147439 0.455594 1.72684 -0.269198 -0.147439 -0.269198 0.99101" cutoff=-1.0 nneightol=1.2 pbc="T T T"
Si       0.00000000       0.00000000       0.00000000       0.00000000       0.00000000       0.00000000
1
Lattice="2.587928 0.0 0.0 -1.560556 2.259533 0.0 0.157755 -0.269752 2.398983" Properties=species:S:1:pos:R:3:dft_force:R:3 config_type=sh dft_energy=-162.737175 dft_virial="0.622001 0.361895 -0.20592 0.361895 0.871805 0.555611 -0.20592 0.555611 1.19032" cutoff=-1.0 nneightol=1.2 pbc="T T T"
Si       0.00000000       0.00000000       0.00000000       0.00000000       0.00000000       0.00000000
1
Lattice="2.5355 0.0 0.0 -1.148236 2.390834 0.0 0.179977 -0.341229 2.393749" Properties=species:S:1:pos:R:3:dft_force:R:3 config_type=sh dft_energy=-162.730526 dft_virial="0.375738 -0.0763977 -0.447617 -0.0763977 0.0570399 0.506522 -0.447617 0.506522 1.05603" cutoff=-1.0 nneightol=1.2 pbc="T T T"
Si       0.00000000       0.00000000       0.00000000       0.00000000       0.00000000       0.00000000
1
Lattice="2.605146 0.0 0.0 -1.395961 2.255868 0.0 -0.113226 -0.041042 2.368301" Properties=species:S:1:pos:R:3:dft_force:R:3 config_type=sh dft_energy=-162.775506 dft_virial="0.670904 0.140852 0.35237 0.140852 0.671595 0.164077 0.35237 0.164077 1.62371" cutoff=-1.0 nneightol=1.2 pbc="T T T"
Si       0.00000000       0.00000000       0.00000000       0.00000000       0.00000000       0.00000000
1
Lattice="2.759103 0.0 0.0 -1.474024 2.005987 0.0 -0.024694 0.02809 2.485755" Properties=species:S:1:pos:R:3:dft_force:R:3 config_type=sh dft_energy=-162.704131 dft_virial="1.2027 0.416977 0.0297025 0.416977 2.43222 -0.0709334 0.0297025 -0.0709334 0.40245" cutoff=-1.0 nneightol=1.2 pbc="T T T"
Si       0.00000000       0.00000000       0.00000000       0.00000000       0.00000000       0.00000000
1
Lattice="2.694498 0.0 0.0 -1.477152 2.1884 0.0 0.180167 -0.017656 2.231332" Properties=species:S:1:pos:R:3:dft_force:R:3 config_type=sh dft_energy=-162.592029 dft_virial="0.687655 0.266886 -0.343649 0.266886 1.19594 -0.0490614 -0.343649 -0.0490614 4.28164" cutoff=-1.0 nneightol=1.2 pbc="T T T"
Si       0.00000000       0.00000000       0.00000000       0.00000000       0.00000000       0.00000000
1
Lattice="2.388285 0.0 0.0 -1.136008 2.194886 0.0 0.107251 -0.001424 2.414493" Properties=species:S:1:pos:R:3:dft_force:R:3 config_type=sh dft_energy=-162.617688 dft_virial="3.03097 -0.149639 -0.295223 -0.149639 2.14484 0.0296766 -0.295223 0.0296766 1.44858" cutoff=-1.0 nneightol=1.2 pbc="T T T"
Si       0.00000000       0.00000000       0.00000000       0.00000000       0.00000000       0.00000000
1
Lattice="2.423238 0.0 0.0 -1.229594 2.316803 0.0 0.057401 -0.094048 2.400299" Properties=species:S:1:pos:R:3:dft_force:R:3 config_type=sh dft_energy=-162.73123 dft_virial="1.98142 0.0263804 -0.209494 0.0263804 0.901853 0.173277 -0.209494 0.173277 1.35383" cutoff=-1.0 nneightol=1.2 pbc="T T T"
Si       0.00000000       0.00000000       0.00000000       0.00000000       0.00000000       0.00000000
1
Lattice="2.509209 0.0 0.0 -1.466242 2.355621 0.0 0.068165 -0.20612 2.414382" Properties=species:S:1:pos:R:3:dft_force:R:3 config_type=sh dft_energy=-162.77387 dft_virial="0.841514 0.196137 -0.124647 0.196137 0.396302 0.4208 -0.124647 0.4208 0.952635" cutoff=-1.0 nneightol=1.2 pbc="T T T"
Si       0.00000000       0.00000000       0.00000000       0.00000000       0.00000000       0.00000000
1