8
Lattice="6.662612 0.0 0.0 0.0 9.422356 0.0 0.0 0.0 7.693322" Properties=species:S:1:pos:R:3:frac_pos:R:3:dft_force:R:3:map_shift:I:3:n_neighb:I:1:gap_force:R:3 config_type=sp2 dft_energy=-1299.66308533 gap_energy=-1294.45148121 gap_virial="2.37790442 6.598e-05 0.0 6.598e-05 -3.88130326 0.0 0.0 -0.0 2.37778374" cutoff=5.5 nneightol=1.2 pbc="T T T"
Si       0.00000000      -3.53338350       0.00000000       0.00000000      -0.37500000       0.00000000       0.00082000      -1.16057000      -0.00002000        0        0        0       12       0.00002101      -1.23577971       0.00000000
Si      -3.33130600      -3.53338350       1.92333050      -0.50000000      -0.37500000       0.25000000       0.00092000      -1.16038000       0.00000000        0        0        0       12       0.00002101      -1.23577971       0.00000000
Si       1.11043755      -4.31857669       1.92333050       0.16666700      -0.45833300       0.25000000      -0.00087000       1.16051000      -0.00002000        0        0        0       12      -0.00002101       1.23577971      -0.00000000
Si      -2.22086845      -4.31857669       0.00000000      -0.33333300      -0.45833300       0.00000000      -0.00089000       1.16052000      -0.00000000        0        0        0       12      -0.00002101       1.23577971       0.00000000
Si       0.00000000      -3.53338350       3.84666100       0.00000000      -0.37500000       0.50000000       0.00087000      -1.16056000       0.00003000        0        0       -1       12       0.00002101      -1.23577971      -0.00000000
Si      -3.33130600      -3.53338350       5.76999150      -0.50000000      -0.37500000       0.75000000       0.00087000      -1.16056000      -0.00000000        0        0       -1       12       0.00002101      -1.23577971      -0.00000000
Si       1.11043755      -4.31857669       5.76999150       0.16666700      -0.45833300       0.75000000      -0.00087000       1.16054000      -0.00000000        0        0       -1       12      -0.00002101       1.23577971       0.00000000
Si      -2.22086845      -4.31857669       3.84666100      -0.33333300      -0.45833300       0.50000000      -0.00085000       1.16051000       0.00002000        0        0       -1       12      -0.00002101       1.23577971      -0.00000000
8
Lattice="6.662612 0.0 0.0 0.0 9.422356 0.0 0.0 0.0 7.693322" Properties=species:S:1:pos:R:3:frac_pos:R:3:dft_force:R:3:map_shift:I:3:n_neighb:I:1:gap_force:R:3 config_type=sp2 dft_energy=-1299.78580447 gap_energy=-1297.3837426 gap_virial="5.4901443 -0.91631348 0.0365018 -0.91631348 0.33383362 0.75561782 0.0365018 0.75561782 5.47851069" cutoff=5.5 nneightol=1.2 pbc="T T T"
Si      -0.11288464      -3.87304059      -0.04229788      -0.01694300      -0.41104800      -0.00549800       1.36235000       0.08747000       0.51650000        0        0        0       12       1.05973322      -0.36703700       0.70457404
Si      -3.26370048      -3.33052960       1.91749896      -0.48985300      -0.35347100       0.24924200      -1.16670000      -0.30140000       0.49731000        0        0        0       12      -1.04123973       0.46236955       0.61146025
Si       1.13318371      -4.02825506       1.89445746       0.17008100      -0.42752100       0.24624700       0.46789000       0.39099000      -0.21585000        0        0        0       12       0.50264603       0.44698318      -0.15158165
Si      -2.28243764      -4.02766145       0.05920011      -0.34257400      -0.42745800       0.00769500      -0.49374000      -0.27021000      -0.60650000        0        0        0       12      -0.64394447      -0.01475782      -0.62519543
Si       0.05412706      -4.08861467       3.88764333       0.00812400      -0.43392700       0.50532700      -0.38340000       0.08869000      -1.20133000        0        0       -1       12      -0.31453607      -0.34459989      -1.08160611
Si      -3.37420656      -4.20122125       5.77032231      -0.50643900      -0.44587800       0.75004300       1.28610000       0.14925000      -0.25264000        1        0       -1       12       1.52562243      -0.23947930      -0.45232412
Si       1.12685423      -3.95976395       5.76540628       0.16913100      -0.42025200       0.74940400      -0.46757000       0.05356000       0.86212000        0        0       -1       12      -0.52296876       0.02190045       0.85780321
Si      -2.16442946      -3.89876362       3.82773543      -0.32486200      -0.41377800       0.49754000      -0.60493000      -0.19835000       0.40039000        0        0        0       12      -0.56531264       0.03462084       0.13686980
8
Lattice="6.662612 0.0 0.0 0.0 9.422356 0.0 0.0 0.0 7.693322" Properties=species:S:1:pos:R:3:frac_pos:R:3:dft_force:R:3:map_shift:I:3:n_neighb:I:1:gap_force:R:3 config_type=sp2 dft_energy=-1299.94086379 gap_energy=-1296.57678202 gap_virial="3.81463437 0.43160729 0.12184402 0.43160729 -0.33975688 0.43129565 0.12184402 0.43129565 0.79290156" cutoff=5.5 nneightol=1.2 pbc="T T T"
Si       0.05185511      -3.31378607      -0.16048270       0.00778300      -0.35169400      -0.02086000      -0.41496000      -0.40097000       0.69639000        0        0        0       12      -0.34428410       0.50048395       0.98413461
Si      -3.38927072      -3.78755155       2.02955220      -0.50870000      -0.40197500       0.26380700       0.30235000      -0.10367000      -0.20180000        1        0        0       12       0.11301640      -1.27110138      -0.73436675
Si       1.01114465      -4.14974692       1.78733565       0.15176400      -0.44041500       0.23232300       0.60668000       0.10026000      -0.36001000        0        0        0       12       0.20757331       0.73054613       0.43919865
Si      -2.14488802      -3.99554064       0.08508814      -0.32192900      -0.42404900       0.01106000      -0.37758000       0.20622000      -0.15140000        0        0        0       12      -0.04979250       1.13850124      -0.15056314
Si       0.02974856      -4.14127622       3.80259365       0.00446500      -0.43951600       0.49427200      -0.49276000       0.36920000      -0.16549000        0        0        0       12      -0.17670038      -1.21493499       0.24618495
Si      -3.37971654      -3.61919290       5.85194846      -0.50726600      -0.38410700       0.76065300       1.57188000      -0.05551000      -0.03440000        1        0       -1       12       1.29240483      -0.76747696      -0.37288163
Si       1.17164697      -4.13714923       5.72235445       0.17585400      -0.43907800       0.74380800      -0.85837000      -0.30501000       0.31356000        0        0       -1       12      -0.92284663       0.35435189       0.36906755
Si      -2.23400045      -4.26360667       3.96156846      -0.33530400      -0.45249900       0.51493600      -0.33722000       0.18948000      -0.09685000        0        0       -1       12      -0.11937093       0.52963012      -0.78077423
8
Lattice="6.662612 0.0 0.0 0.0 9.422356 0.0 0.0 0.0 7.693322" Properties=species:S:1:pos:R:3:frac_pos:R:3:dft_force:R:3:map_shift:I:3:n_neighb:I:1:gap_force:R:3 config_type=sp2 dft_energy=-1300.06507212 gap_energy=-1296.27175917 gap_virial="5.87173491 0.66988047 1.09197685 0.66988047 -2.02827819 -0.44671454 1.09197685 -0.44671454 5.21762141" cutoff=5.5 nneightol=1.2 pbc="T T T"
Si      -0.01102662      -3.84769445      -0.00214644      -0.00165500      -0.40835800      -0.00027900       0.50409000       0.04163000      -0.44662000        0        0        0       12       0.43016135      -1.46618721      -0.59656417
Si      -3.33446408      -3.63391062       1.94267151      -0.50047400      -0.38566900       0.25251400      -0.44613000       0.16586000      -0.16986000        1        0        0       12      -0.37375704      -0.98966457      -0.30779563
Si       1.12532849      -4.18024708       1.92820037       0.16890200      -0.44365200       0.25063300      -0.60203000       0.29993000       0.59715000        0        0        0       12      -0.38221833       1.41096078       0.45993840
Si      -2.25908519      -4.16456828       0.05224535      -0.33906900      -0.44198800       0.00679100       0.44822000      -0.18991000      -0.23623000        0        0        0       12       0.35916963       1.01997467      -0.15757103
Si      -0.09480231      -3.55694881       3.85762398      -0.01422900      -0.37750100       0.50142500       1.15970000      -0.41380000      -0.38038000        0        0       -1       12       0.80412130      -1.01529509       0.04882172
Si      -3.28133641      -3.74606492       5.78617825      -0.49250000      -0.39757200       0.75210400       0.64981000       0.24404000      -0.30256000        0        0       -1       12       0.91127906      -1.16753147      -0.29932207
Si       1.22232280      -4.06138406       5.71311477       0.18346000      -0.43103700       0.74260700      -1.95039000      -0.07476000       0.25651000        0        0       -1       12      -1.51499490       1.31698174       0.34181778
Si      -2.25041047      -4.21705081       3.80207051      -0.33776700      -0.44755800       0.49420400       0.23672000      -0.07299000       0.68198000        0        0        0       12      -0.23376107       0.89076116       0.51067500
8
Lattice="6.662612 0.0 0.0 0.0 9.422356 0.0 0.0 0.0 7.693322" Properties=species:S:1:pos:R:3:frac_pos:R:3:dft_force:R:3:map_shift:I:3:n_neighb:I:1:gap_force:R:3 config_type=sp2 dft_energy=-1300.00565144 gap_energy=-1296.05416231 gap_virial="4.02106246 -0.52516111 0.306862 -0.52516111 -1.68652568 -0.15204042 0.306862 -0.15204042 4.04713808" cutoff=5.5 nneightol=1.2 pbc="T T T"
Si       0.06656616      -3.69452463       0.00630083       0.00999100      -0.39210200       0.00081900      -0.68693000       0.31482000       0.65278000        0        0        0       12      -0.68325292      -1.18022407       0.11260947
Si      -3.36153427      -3.43716240       1.94107899      -0.50453700      -0.36478800       0.25230700       0.11859000      -0.00394000      -0.55048000        1        0        0       12       0.01514859       0.02651632      -0.35788766
Si       1.16087353      -4.12766092       1.92338435       0.17423700      -0.43807100       0.25000700      -0.44220000       0.08219000       0.74296000        0        0        0       12      -0.67420895       1.17195105       0.50441251
Si      -2.17541611      -4.05379907       0.08298017      -0.32651100      -0.43023200       0.01078600      -0.44847000       0.00256000      -0.77083000        0        0        0       12      -0.35146363       1.40946547      -0.72439205
Si      -0.05683208      -3.70797033       3.88822802      -0.00853000      -0.39352900       0.50540300       0.52663000      -0.15331000      -0.47904000        0        0       -1       12       0.34807391      -1.49825272      -0.23765781
Si      -3.28408807      -3.86665223       5.70880651      -0.49291300      -0.41037000       0.74204700      -0.69249000      -0.13232000       0.67380000        0        0       -1       12      -0.35580348      -1.68071496       0.57615946
Si       1.01622822      -4.29229774       5.82152137       0.15252700      -0.45554400       0.75669800       1.46680000      -0.00342000      -1.06686000        0        0       -1       12       1.49697592       0.85127309      -0.95886960
Si      -2.24928449      -4.22778287       3.70765806      -0.33759800      -0.44869700       0.48193200       0.15807000      -0.10658000       0.79768000        0        0        0       12       0.20453055       0.89998582       1.08562567
8
Lattice="6.662612 0.0 0.0 0.0 9.422356 0.0 0.0 0.0 7.693322" Properties=species:S:1:pos:R:3:frac_pos:R:3:dft_force:R:3:map_shift:I:3:n_neighb:I:1:gap_force:R:3 config_type=sp2 dft_energy=-1300.03683153 gap_energy=-1296.30064524 gap_virial="3.15765893 -1.02769928 0.15599911 -1.02769928 -2.04236856 0.05663673 0.15599911 0.05663673 6.28832643" cutoff=5.5 nneightol=1.2 pbc="T T T"
Si       0.06362128      -3.73171467       0.04095925       0.00954900      -0.39604900       0.00532400      -0.40064000       0.18330000      -0.64971000        0        0        0       12      -0.05310928      -1.17721861      -0.27469149
Si      -3.27943090      -3.68461231       1.86924645      -0.49221400      -0.39105000       0.24297000      -0.55825000      -0.16098000      -0.13598000        0        0        0       12      -0.47120904      -1.28009645      -0.09682648
Si       1.11440181      -4.15807628       1.93333182       0.16726200      -0.44129900       0.25130000       0.83975000      -0.09430000       0.35531000        0        0        0       12       0.98690198       1.26485903       0.75552849
Si      -2.11184146      -4.30130551      -0.02400316      -0.31696900      -0.45650000      -0.00312000      -0.36080000       0.03960000       0.67609000        0        0        0       12      -0.12865301       0.65643246       0.15707304
Si      -0.05275456      -3.58689306       3.77535160      -0.00791800      -0.38067900       0.49073100      -0.48181000      -0.24335000       0.76948000        0        0        0       12      -0.82900650      -1.04211791       0.46675765
Si      -3.30580818      -3.78351878       5.84521680      -0.49617300      -0.40154700       0.75977800      -1.15853000       0.26639000       0.26911000        0        0       -1       12      -1.25206587      -1.23390116       0.17374557
Si       1.05249282      -4.09482400       5.74798091       0.15797000      -0.43458600       0.74713900       0.56928000       0.05874000      -0.37820000        0        0       -1       12       0.61477082       1.40731893      -0.64939793
Si      -2.36416790      -4.06692441       3.89189773      -0.35484100      -0.43162500       0.50588000       1.55100000      -0.04940000      -0.90609000        0        0       -1       12       1.13237092       1.40472372      -0.53218886
8
Lattice="6.662612 0.0 0.0 0.0 9.422356 0.0 0.0 0.0 7.693322" Properties=species:S:1:pos:R:3:frac_pos:R:3:dft_force:R:3:map_shift:I:3:n_neighb:I:1:gap_force:R:3 config_type=sp2 dft_energy=-1300.06073042 gap_energy=-1296.53792737 gap_virial="3.24108076 -0.71407825 1.09044448 -0.71407825 -0.73935599 -0.84817607 1.09044448 -0.84817607 3.66965067" cutoff=5.5 nneightol=1.2 pbc="T T T"
Si       0.03584485      -3.69692733      -0.03778960       0.00538000      -0.39235700      -0.00491200      -0.14323000       0.06810000      -0.42777000        0        0        0       12      -0.13783820      -0.92690081       0.13002181
Si      -3.24477866      -3.71019401       2.08267459      -0.48701300      -0.39376500       0.27071200      -0.68469000       0.30661000      -1.55190000        0        0        0       12      -0.49432597      -0.63837524      -2.07720804
Si       1.14389053      -3.97466070       1.88611790       0.17168800      -0.42183300       0.24516300       0.14289000      -0.13866000       0.52934000        0        0        0       12       0.37534954       1.39284248       0.69975828
Si      -2.21379275      -3.99775489       0.00323120      -0.33227100      -0.42428400       0.00042000       0.04256000      -0.14767000       0.98890000        0        0        0       12      -0.31940763       1.34291015       0.50943230
Si      -0.11261147      -3.72634393       3.79185377      -0.01690200      -0.39547900       0.49287600       0.12657000      -0.25920000      -0.04631000        0        0        0       12      -0.10524275      -1.00994466      -0.10020373
Si      -3.30556167      -3.70275035       5.77650005      -0.49613600      -0.39297500       0.75084600      -0.44649000       0.05069000      -0.43211000        0        0       -1       12      -0.42278742      -0.85792215      -0.18324717
Si       1.10810564      -4.09104564       5.68321852       0.16631700      -0.43418500       0.73872100       0.02177000       0.04552000       0.24670000        0        0       -1       12       0.42623192       1.37617793       0.71080496
Si      -2.29457692      -4.50818276       3.89415957      -0.34439600      -0.47845600       0.50617400       0.94062000       0.07461000       0.69316000        0        0       -1       12       0.67802051      -0.67878769       0.31064160
8
Lattice="6.662612 0.0 0.0 0.0 9.422356 0.0 0.0 0.0 7.693322" Properties=species:S:1:pos:R:3:frac_pos:R:3:dft_force:R:3:map_shift:I:3:n_neighb:I:1:gap_force:R:3 config_type=sp2 dft_energy=-1300.08249495 gap_energy=-1296.34500859 gap_virial="5.60247274 0.20467986 -0.38354212 0.20467986 -1.91670622 0.10719475 -0.38354212 0.10719475 4.41876828" cutoff=5.5 nneightol=1.2 pbc="T T T"
Si      -0.00101938      -3.65777744       0.01826395      -0.00015300      -0.38820200       0.00237400       0.47461000      -0.02577000      -0.03903000        0        0        0       12       0.42122416      -1.01587432      -0.26396199
Si      -3.41162379      -3.85684356       1.88417918      -0.51205500      -0.40932900       0.24491100       0.45994000       0.24826000       0.94719000        1        0        0       12       0.18238474      -1.28229493       1.08044633
Si       1.07055516      -4.29805480       1.91767591       0.16068100      -0.45615500       0.24926500      -0.49000000       0.07112000       0.04381000        0        0        0       12      -0.55733622       0.63976843       0.08268640
Si      -2.22058195      -3.94046697       0.03738954      -0.33329000      -0.41820400       0.00486000       0.15749000      -0.33177000      -0.51198000        0        0        0       12       0.27349387       1.31668434      -0.59226871
Si       0.07530084      -3.53461783       3.82041139       0.01130200      -0.37513100       0.49658800      -0.18583000      -0.46093000       0.45715000        0        0        0       12      -0.11853879      -0.84383399       0.66072465
Si      -3.32917396      -3.72622144       5.79942615      -0.49968000      -0.39546600       0.75382600      -0.15052000      -0.12875000      -0.87003000        0        0       -1       12      -0.28441650      -1.42748216      -0.96782998
Si       1.09003664      -4.26697987       5.80435757       0.16360500      -0.45285700       0.75446700       0.01708000       0.40653000      -0.48423000        0        0       -1       12       0.03134468       1.12834742      -0.43026003
Si      -2.15697400      -4.12690713       3.79827000      -0.32374300      -0.43799100       0.49371000      -0.28278000       0.22132000       0.45712000        0        0        0       12       0.05184405       1.48468522       0.43046334
8
Lattice="6.662612 0.0 0.0 0.0 9.422356 0.0 0.0 0.0 7.693322" Properties=species:S:1:pos:R:3:frac_pos:R:3:dft_force:R:3:map_shift:I:3:n_neighb:I:1:gap_force:R:3 config_type=sp2 dft_energy=-1300.11592447 gap_energy=-1296.67638146 gap_virial="6.75670264 0.64080671 1.16391993 0.64080671 -1.48003322 -0.38252338 1.16391993 -0.38252338 5.87164815" cutoff=5.5 nneightol=1.2 pbc="T T T"
Si       0.01511747      -3.92035024      -0.01213237       0.00226900      -0.41606900      -0.00157700      -0.38595000       0.31388000      -0.32786000        0        0        0       12      -0.41654563      -1.16462677      -0.46385843
Si      -3.37593884      -3.61313432       1.96734400      -0.50669900      -0.38346400       0.25572100      -0.24214000      -0.07324000      -0.36788000        1        0        0       12      -0.26733208      -0.86511909      -0.36829500
Si       1.06687740      -4.20105165       1.91616032       0.16012900      -0.44586000       0.24906800       0.46294000       0.13946000       0.75789000        0        0        0       12       0.08372564       0.97161296       0.44606870
Si      -2.26240317      -3.99734031       0.03198883      -0.33956700      -0.42424000       0.00415800       0.33442000      -0.24110000       0.14483000        0        0        0       12       0.34464413       1.09204863       0.15693708
Si      -0.02716347      -3.64481228       3.85962425      -0.00407700      -0.38682600       0.50168500       1.42763000       0.05597000      -0.07797000        0        0       -1       12       1.36996324      -0.94030125       0.15236459
Si      -3.31031877      -3.75426237       5.76729884      -0.49685000      -0.39844200       0.74965000       0.27497000       0.09145000      -0.49327000        0        0       -1       12       0.50281589      -1.08056715      -0.46617334
Si       1.16235263      -4.19870548       5.75482027       0.17445900      -0.44561100       0.74802800      -0.56211000       0.00657000      -0.27886000        0        0       -1       12      -0.47055532       0.87343931       0.09075479
Si      -2.15201035      -4.07819355       3.79486956      -0.32299800      -0.43282100       0.49326800      -1.30976000      -0.29300000       0.64313000        0        0        0       12      -1.14671586       1.11351336       0.45220162
8
Lattice="6.662612 0.0 0.0 0.0 9.422356 0.0 0.0 0.0 7.693322" Properties=species:S:1:pos:R:3:frac_pos:R:3:dft_force:R:3:map_shift:I:3:n_neighb:I:1:gap_force:R:3 config_type=sp2 dft_energy=-1300.01136564 gap_energy=-1296.37497663 gap_virial="2.87571692 -1.14871024 -0.69557187 -1.14871024 -1.74521939 0.55632007 -0.69557187 0.55632007 5.51630776" cutoff=5.5 nneightol=1.2 pbc="T T T"
Si      -0.01265896      -3.61821297      -0.01617136      -0.00190000      -0.38400300      -0.00210200      -0.28330000       0.08675000       0.67890000        0        0        0       12      -0.47726554      -0.93665855      -0.03606650
Si      -3.41959893      -3.55020241       1.92401521      -0.51325200      -0.37678500       0.25008900      -0.35901000      -0.37898000       0.75634000        1        0        0       12      -0.50376776      -0.70408456       0.70355193
Si       1.02221125      -4.28834977       1.89931195       0.15342500      -0.45512500       0.24687800       1.03636000       0.30618000      -0.29460000        0        0        0       12       0.58503114       0.71277104      -0.26618558
Si      -2.24639957      -3.98355540       0.08245703      -0.33716500      -0.42277700       0.01071800       0.22290000      -0.18708000      -0.87322000        0        0        0       12       0.22848353       1.50834199      -0.48498124
Si       0.05414705      -3.90216509       3.87960380       0.00812700      -0.41413900       0.50428200      -0.81547000       0.24133000      -0.35488000        0        0       -1       12      -0.73564114      -1.43773824       0.17490437
Si      -3.19260374      -3.70462540       5.72171590      -0.47918200      -0.39317400       0.74372500      -1.18406000      -0.13310000       0.31473000        0        0       -1       12      -0.90717404      -1.29412391       0.30022882
Si       1.11202326      -4.08559010       5.81816708       0.16690500      -0.43360600       0.75626200       1.47252000      -0.14664000      -0.13050000        0        0       -1       12       1.38781381       1.18536675      -0.15111245
Si      -2.20060744      -4.27514905       3.77087408      -0.33029200      -0.45372400       0.49014900      -0.08994000       0.21153000      -0.09676000        0        0        0       12       0.42251999       0.96612547      -0.24033936
8
Lattice="6.662612 0.0 0.0 0.0 9.422356 0.0 0.0 0.0 7.693322" Properties=species:S:1:pos:R:3:frac_pos:R:3:dft_force:R:3:map_shift:I:3:n_neighb:I:1:gap_force:R:3 config_type=sp2 dft_energy=-1300.01478209 gap_energy=-1295.92752837 gap_virial="3.80897133 -0.22926267 -0.51655441 -0.22926267 -2.31158596 1.11278377 -0.51655441 1.11278377 3.99560058" cutoff=5.5 nneightol=1.2 pbc="T T T"
Si       0.02224646      -3.65899293       0.02404932       0.00333900      -0.38833100       0.00312600       0.15088000      -0.00649000       1.00151000        0        0        0       12       0.24905445      -1.31131077       0.79251451
Si      -3.23716996      -3.91105037       1.84241983      -0.48587100      -0.41508200       0.23948300      -1.32323000       0.09042000       0.78831000        0        0        0       12      -1.08762478      -1.75093903       1.06187666
Si       1.09380767      -4.31898185       1.96663621       0.16417100      -0.45837600       0.25562900       0.34897000       0.48002000      -0.15747000        0        0        0       12       0.85414074       0.99650249      -0.15407816
Si      -2.15454214      -4.16879892      -0.06607794      -0.32337800      -0.44243700      -0.00858900      -0.37257000       0.02653000      -0.94315000        0        0        0       12      -0.39214663       1.17313046      -0.59780127
Si      -0.05368066      -3.58638425       3.84479922      -0.00805700      -0.38062500       0.49975800       0.20864000      -0.56429000       0.32979000        0        0        0       12       0.01570846      -1.33450151       0.19040645
Si      -3.36928955      -3.48043928       5.74058762      -0.50570100      -0.36938100       0.74617800       0.33688000      -0.27209000       0.52771000        1        0       -1       12       0.12260382      -0.53530417       0.67217622
Si       1.11216317      -4.06194940       5.84454748       0.16692600      -0.43109700       0.75969100      -0.11469000       0.04906000      -1.33518000        0        0       -1       12      -0.17997934       1.55986462      -1.66192643
Si      -2.29702210      -4.22124376       3.88300425      -0.34476300      -0.44800300       0.50472400       0.76512000       0.19683000      -0.21151000        0        0       -1       12       0.41824328       1.20255793      -0.30316798
8
Lattice="6.662612 0.0 0.0 0.0 9.422356 0.0 0.0 0.0 7.693322" Properties=species:S:1:pos:R:3:frac_pos:R:3:dft_force:R:3:map_shift:I:3:n_neighb:I:1:gap_force:R:3 config_type=sp2 dft_energy=-1300.02050523 gap_energy=-1296.16094564 gap_virial="5.1651862 0.33662038 1.75965703 0.33662038 -1.62349339 -1.4836755 1.75965703 -1.4836755 2.56311048" cutoff=5.5 nneightol=1.2 pbc="T T T"
Si       0.06259524      -3.41178800       0.11035301       0.00939500      -0.36209500       0.01434400      -0.34764000      -0.40285000      -0.73704000        0        0        0       12      -0.22925528      -0.09885459      -0.83693433
Si      -3.35345918      -3.66211173       1.89008766      -0.50332500      -0.38866200       0.24567900       0.59589000      -0.22833000      -0.73997000        1        0        0       12       0.44909646      -1.33492373      -0.60872456
Si       1.13989962      -4.28801057       1.90953637       0.17108900      -0.45508900       0.24820700      -0.43034000       0.13457000       0.63582000        0        0        0       12      -0.36878534       0.64300619       0.81682626
Si      -2.14291589      -4.07045779      -0.12565503      -0.32163300      -0.43200000      -0.01633300      -0.04556000       0.20388000       1.45548000        0        0        0       12       0.21266541       1.44049323       1.42079355
Si      -0.03234032      -3.95003066       3.91703951      -0.00485400      -0.41921900       0.50914800       0.20452000       0.15297000      -1.02874000        0        0       -1       12       0.25398438      -1.59454870      -1.38454433
Si      -3.37849728      -3.68887122       5.75958244      -0.50708300      -0.39150200       0.74864700       0.55089000       0.02052000      -1.03365000        1        0       -1       12       0.43413543      -1.27346604      -0.47813091
Si       1.09139581      -4.09064990       5.83043024       0.16380900      -0.43414300       0.75785600      -0.31157000      -0.01175000       0.85942000        0        0       -1       12      -0.67083437       1.24826967       0.19916841
Si      -2.27015845      -4.24593033       3.78859950      -0.34073100      -0.45062300       0.49245300      -0.21619000       0.13100000       0.58868000        0        0        0       12      -0.08100668       0.97002396       0.87154591
8
Lattice="6.662612 0.0 0.0 0.0 9.422356 0.0 0.0 0.0 7.693322" Properties=species:S:1:pos:R:3:frac_pos:R:3:dft_force:R:3:map_shift:I:3:n_neighb:I:1:gap_force:R:3 config_type=sp2 dft_energy=-1300.09252939 gap_energy=-1296.1104025 gap_virial="6.16297429 0.66626203 0.60995664 0.66626203 -2.26558973 -0.51526427 0.60995664 -0.51526427 3.44214547" cutoff=5.5 nneightol=1.2 pbc="T T T"
Si       0.01452449      -3.55256742       0.02758825       0.00218000      -0.37703600       0.00358600       0.18786000      -0.07100000      -0.94503000        0        0        0       12       0.31109314      -0.83047321      -0.50899515
Si      -3.37636524      -3.68308589       1.92751567      -0.50676300      -0.39088800       0.25054400       1.23189000      -0.34189000       0.18959000        1        0        0       12       1.14826898      -1.46699182      -0.19063510
Si       1.11103719      -4.17876777       1.87413940       0.16675700      -0.44349500       0.24360600      -0.01885000      -0.25189000       0.03162000        0        0        0       12      -0.03187833       1.07736767       0.67413544
Si      -2.14470147      -4.17922947      -0.01971029      -0.32190100      -0.44354400      -0.00256200      -0.71945000       0.13919000       0.89845000        0        0        0       12      -0.60267122       1.29525041       0.50132978
Si      -0.04487269      -3.89019870       3.77280511      -0.00673500      -0.41286900       0.49040000       0.13450000       0.24588000       0.59362000        0        0        0       12       0.16973631      -1.52165578       0.51821199
Si      -3.30995899      -3.58953132       5.84350889      -0.49679600      -0.38095900       0.75955600       0.04312000      -0.11605000      -0.62370000        0        0       -1       12      -0.26802752      -1.11999129      -0.56389415
Si       1.12998566      -4.05375195       5.72987083       0.16960100      -0.43022700       0.74478500      -0.30406000       0.05110000       0.46624000        0        0       -1       12      -0.27808970       1.51083808       0.16331757