96
Lattice="13.325224 0.0 0.0 0.0 20.0 0.0 0.0 0.0 15.386644" Properties=species:S:1:pos:R:3:frac_pos:R:3:force_ewald:R:3:force_locpot:R:3:force_nlpot:R:3:dft_force:R:3:map_shift:I:3:n_neighb:I:1:gap_force:R:3 config_type=surface_111 kpoints_mp_grid="6 1 5" iprint=2 reuse=NULL task=SinglePoint calculate_stress=T data_distribution=GVECTOR opt_strategy=memory xc_functional=PW91 cut_off_energy="250.0000000 eV" fine_grid_scale=4.0 finite_basis_corr=automatic spin_polarized=F elec_energy_tol="0.0000001 ev" max_scf_cycles=250 fix_occupancy=F smearing_width="0.0500000 eV" num_dump_cycles=0 mixing_scheme=pulay mix_history_length=20 castep_file_name=teach_01.xyz@33/filepot/filepot.castep castep_run_time=7006.71 dft_energy=-15608.12922 gap_energy=-15613.09220516 gap_virial="-24.93046709 8.23852429 -4.00574811 8.23852429 -0.4475526 2.06681639 -4.00574811 2.06681639 -30.57617261" cutoff=5.5 nneightol=1.2 pbc="T T T"
Si       0.40655258       3.36208000       2.08299770       0.03051000       0.16810400       0.13537700      -5.57740000     301.26673000     -14.14022000       5.48294000    -296.39510000      13.72114000       1.07695000      -5.82109000       0.51377000       0.98249000      -0.94946000       0.09466000        0        0        0       18       0.99789280      -1.33663650       0.10249221
Si      -3.10180567       2.10458000       0.44487404      -0.23277700       0.10522900       0.02891300      -7.79984000     256.56017000       6.04992000       9.35491000    -256.75937000      -4.58575000      -2.29593000       0.45628000      -1.92112000      -0.74087000       0.25709000      -0.45697000        0        0        0       21      -0.43537322       0.30504286      -0.47930155
Si      -1.46244333       1.84320000       2.04751610      -0.10975000       0.09216000       0.13307100       3.60802000     223.37580000      -3.82323000      -3.03832000    -224.02676000       4.17040000       0.04656000       1.49386000      -0.24534000       0.61626000       0.84291000       0.10181000        0        0        0       22       0.65894851       0.77435489       0.04258281
Si      -1.21599332      -0.44146000       2.28785548      -0.09125500      -0.02207300       0.14869100       3.68720000      13.07883000       1.74638000      -3.55917000     -12.83591000      -2.53718000      -1.35116000      -0.54244000       2.04689000      -1.22313000      -0.29952000       1.25607000        0        0        0       31      -0.90054810      -0.09969796       1.06525480
Si       1.92586797       1.88258000       0.42602540       0.14452800       0.09412900       0.02768800      -9.24229000     216.18547000       3.17343000       9.68388000    -217.88189000      -2.37567000      -2.13121000       3.01828000      -0.57924000      -1.68962000       1.32186000       0.21850000        0        0        0       24      -1.45553919       1.39851064       0.37455189
Si       2.12787837      -0.38924000       0.58498482       0.15968800      -0.01946200       0.03801900      -4.17480000      24.45387000       7.17764000       4.15374000     -23.31966000      -7.98410000      -0.09990000      -1.12951000       1.34088000      -0.12097000       0.00471000       0.53440000        0        0        0       31       0.02553167      -0.06369535       0.47956627
Si      -0.13283916      -0.94042000       0.38723567      -0.00996900      -0.04702100       0.02516700      -0.72149000     -14.83244000     -13.31586000       0.65648000      12.47595000      14.56414000      -0.16171000       1.94630000      -2.96673000      -0.22672000      -0.41018000      -1.71848000        0        0        0       35      -0.24761694      -0.30973707      -1.47993413
Si      -0.36381859      -3.23112000       0.21593616      -0.02730300      -0.16155600       0.01403400      -7.71381000    -190.65680000      -2.92986000       7.89253000     191.45668000       4.25415000       0.80298000      -1.50662000      -1.25517000       0.98170000      -0.70674000       0.06909000        0        0        0       25       0.61100948      -0.78364373       0.06008322
Si       3.40079704      -0.83706000       2.54825905       0.25521500      -0.04185300       0.16561500       2.19770000      -2.85199000      -0.30428000      -3.52085000       2.15329000       0.70698000       0.46868000      -0.12179000      -0.90834000      -0.85448000      -0.82048000      -0.50566000        0        0        0       32      -0.67536736      -0.65131887      -0.36847567
Si      -3.44462370      -3.26466000       2.45953966      -0.25850400      -0.16323300       0.15984900      -0.82295000    -215.34489000       6.86556000       1.63405000     216.33202000      -7.52426000      -2.10015000      -1.80740000       1.01693000      -1.28905000      -0.82027000       0.35821000        0        0        0       26      -1.12323121      -0.56137858       0.52978528
Si       1.11931882      -4.60848000       1.58334721       0.08400000      -0.23042400       0.10290400      -4.05036000    -295.66242000      12.46479000       4.39537000     292.75095000     -12.81699000      -1.07565000       3.38489000       1.17387000      -0.73065000       0.47342000       0.82165000        0        0        0       20      -0.68105548       0.55897724       0.83988106
Si      -2.54951511      -4.04106000       0.54064051      -0.19133000      -0.20205300       0.03513700      -3.13621000    -265.47435000      -1.05494000       3.16426000     264.91034000       1.82233000       0.31762000       0.52336000      -2.61203000       0.34566000      -0.04065000      -1.84467000        0        0        0       21       0.27644791      -0.03578261      -1.90525333
Si       0.20794012       2.86880000       6.02911797       0.01560500       0.14344000       0.39184100     -38.26367000     285.66595000      11.66166000      38.52978000    -286.84269000     -12.46058000      -0.06488000       1.46500000       1.35870000       0.20123000       0.28827000       0.55976000        0        0        0       21       0.00949201       0.30233369       0.48063456
Si      -2.77010087       1.68784000       3.90034500      -0.20788400       0.08439200       0.25348900     -24.60396000     233.58639000       5.91758000      24.83469000    -233.50055000      -5.99132000       0.22399000       0.34869000       1.49917000       0.45472000       0.43453000       1.42540000        0        0        0       25       0.25519034       0.31487806       1.35868087
Si      -1.57574771       1.45264000       5.97672645      -0.11825300       0.07263200       0.38843600     -10.71481000     185.93494000      -3.53887000      11.69928000    -185.61319000       3.49571000      -1.30012000      -0.23668000      -0.22492000      -0.31566000       0.08508000      -0.26809000        0        0        0       27      -0.39970160      -0.36521878      -0.45696551
Si      -1.21434099      -0.91880000       6.08360208      -0.09113100      -0.04594000       0.39538200      -5.42660000     -25.73844000       5.69106000       6.64784000      27.01676000      -6.58171000      -2.51779000      -0.94349000       1.83539000      -1.29656000       0.33483000       0.94471000        0        0        0       30      -1.19259779       0.48143639       1.00106612
Si       1.33380162       2.20524000       4.17575054       0.10009600       0.11026200       0.27138800     -10.90919000     206.16008000     -31.55295000      10.64833000    -205.06344000      33.41126000       0.14511000      -1.15714000      -3.26408000      -0.11575000      -0.06051000      -1.40580000        0        0        0       25      -0.16947531       0.12417628      -1.44929786
Si       2.02179626      -0.07446000       4.24068218       0.15172700      -0.00372300       0.27560800      -0.38475000      51.60204000      -6.66633000       0.69274000     -51.75706000       6.90921000      -0.77847000       0.45127000       0.03993000      -0.47049000       0.29626000       0.28279000        0        0        0       34      -0.28667696       0.40147350       0.31890577
Si      -0.05892414      -1.23998000       4.19969216      -0.00442200      -0.06199900       0.27294400      10.48577000     -47.37453000      -5.94691000     -10.80005000      47.78780000       6.65256000       0.98050000      -0.94253000      -1.92656000       0.66621000      -0.52925000      -1.22094000        0        0        0       33       0.68099705      -0.40491421      -1.40565454
Si      -0.02257293      -3.63592000       3.90565339      -0.00169400      -0.18179600       0.25383400       8.28308000    -244.17050000      -6.23137000      -9.00202000     245.00905000       5.28668000       1.68421000      -1.48419000       1.40673000       0.96527000      -0.64565000       0.46201000        0        0        0       22       0.78905880      -0.54215285       0.30394021
Si       3.14083525      -0.80186000       6.14788748       0.23570600      -0.04009300       0.39956000       3.64721000     -14.21644000       4.72454000      -3.41935000      13.63246000      -6.44236000      -0.73634000       1.74437000       2.59833000      -0.50849000       1.16039000       0.88048000        0        0        0       33      -0.76453183       1.14976319       0.95007467
Si      -3.93182054      -3.49366000       6.40798331      -0.29506600      -0.17468300       0.41646400       6.91368000    -240.67687000      13.13479000      -6.19862000     242.42328000     -12.70820000      -0.20759000      -2.14988000      -0.53206000       0.50747000      -0.40346000      -0.10550000        0        0        0       25       0.37504191      -0.57657324       0.02358814
Si       1.12475551      -4.43940000       6.21409621       0.08440800      -0.22197000       0.40386300       1.55447000    -282.33413000     -23.21789000      -0.94379000     279.34780000      22.60807000       0.05463000       3.49206000      -1.39630000       0.66530000       0.50574000      -2.00615000        0        0        0       20       0.56085250       0.26173022      -1.79307524
Si      -2.24948436      -3.40326000       4.49939321      -0.16881400      -0.17016300       0.29242200      -6.50181000    -230.32655000      14.19327000       7.58513000     229.52514000     -15.19449000      -2.15634000       0.62253000       1.41865000      -1.07303000      -0.17888000       0.41741000        0        0        0       24      -0.71945644      -0.20186039       0.27931282
Si       0.80260489       1.49662000      -5.70736786       0.06023200       0.07483100      -0.37093000     -12.70452000     208.53902000       4.70031000      12.83085000    -207.23978000      -4.29874000       0.37650000      -0.51930000      -0.89643000       0.50283000       0.77994000      -0.49488000        0        0        0       26       0.45123741       0.51678136      -0.57800964
Si      -4.09061724       3.79210000      -5.59001393      -0.30698300       0.18960500      -0.36330300      44.96279000     318.47632000       1.35539000     -43.35514000    -314.66150000      -1.45378000      -1.09857000      -3.58561000       0.40131000       0.50907000       0.22921000       0.30289000        0        0        0       18      -0.13823819      -0.26927811      -0.14248232
Si      -1.44058997       0.99634000      -5.43728610      -0.10811000       0.04981700      -0.35337700       6.83887000     167.11163000      -1.84496000      -6.28352000    -168.74341000       0.76188000      -1.24151000       2.14205000      -0.11927000      -0.68617000       0.51027000      -1.20238000        0        0        0       29      -0.78105446       0.78811483      -0.85899424
Si      -1.61259196      -1.34374000      -5.65008338      -0.12101800      -0.06718700      -0.36720700      -9.09813000     -49.41255000      -7.11928000       9.92649000      50.79747000       7.18605000      -0.45987000      -1.58197000       0.22822000       0.36848000      -0.19705000       0.29496000        0        0        0       32       0.80657571      -0.35438604       0.10111306
Si       1.78576657       2.35370000       7.63976109       0.13401400       0.11768500       0.49651900     -24.96010000     235.43212000      23.53636000      25.22445000    -234.82441000     -24.27815000      -3.08381000      -1.35197000       1.67003000      -2.81946000      -0.74425000       0.92821000        0        0        0       25      -2.33691316      -0.96876195       1.00669413
Si       1.94577586      -0.27820000      -6.95864052       0.14602200      -0.01391000      -0.45225200      11.08962000      33.47213000     -14.54910000     -11.69161000     -35.22392000      15.80492000       1.02151000       1.57592000      -1.88210000       0.41950000      -0.17586000      -0.62630000        0        0        0       33       0.52566460       0.24613505      -0.76360174
Si       0.05971033      -1.56590000      -7.38471208       0.00448100      -0.07829500      -0.47994300       3.01280000     -65.83618000     -24.91721000      -3.29206000      67.05260000      25.52254000      -0.50473000      -1.90137000      -0.60693000      -0.78400000      -0.68495000      -0.00162000        0        0        0       31      -0.96028366      -0.49320656      -0.06009067
Si       0.28186846      -4.06852000      -7.10087466       0.02115300      -0.20342600      -0.46149600      -0.02379000    -247.50679000     -51.09699000       0.63759000     247.52316000      51.63600000      -1.33209000       1.27328000      -1.32148000      -0.71830000       1.28964000      -0.78250000        0        0        0       23      -0.93795347       0.97602035      -1.15366528
Si       3.38843124      -1.15546000      -5.23087427       0.25428700      -0.05777300      -0.33996200      13.73363000     -33.49710000     -11.32400000     -15.09991000      34.27898000      11.93936000       2.00686000      -0.42708000      -1.13866000       0.64057000       0.35480000      -0.52333000        0        0        0       33       0.35291965       0.45787143      -0.43699342
Si      -2.14041741      -3.76940000      -6.12556146      -0.16062900      -0.18847000      -0.39810900     -40.49763000    -236.80494000     -40.57501000      40.16332000     238.33764000      41.03269000      -0.22400000      -1.72940000      -0.16846000      -0.55831000      -0.19669000       0.28921000        0        0        0       24       0.16535261      -0.43775287       0.28858241
Si       1.11101720      -3.60618000      -5.04515747       0.08337700      -0.18030900      -0.32789200      41.19069000    -196.12478000      10.10551000     -40.64830000     195.08350000     -10.75179000       1.78387000       2.47572000       0.24268000       2.32626000       1.43444000      -0.40363000        0        0        0       25       1.48970109       0.56726933      -0.45762978
Si      -0.15170768      -5.50374000      -5.34582788      -0.01138500      -0.27518700      -0.34743300      -0.93440000    -346.10878000      -7.57779000       1.80761000     343.58671000       7.54202000      -1.94935000       0.97495000       0.13192000      -1.07614000      -1.54711000       0.09613000        0        0        0       14      -0.73658271      -0.45867114      -0.03246147
Si       0.56974660       2.20210000      -1.58016218       0.04275700       0.11010500      -0.10269700       8.17717000     246.06910000      -5.36849000      -7.99188000    -246.21261000       6.53271000       1.52434000      -0.22361000      -1.44673000       1.70963000      -0.36712000      -0.28254000        0        0        0       20       1.67845826      -0.15727129      -0.06665996
Si      -2.74467634       1.73148000      -3.63244814      -0.20597600       0.08657400      -0.23607800      26.01033000     210.77987000       6.00684000     -26.27600000    -211.19978000      -5.50696000       0.58593000       0.68251000       0.35978000       0.32026000       0.26260000       0.85963000        0        0        0       24       0.35770906       0.13467507       0.69668052
Si      -1.65973660       2.22488000      -1.47593305      -0.12455600       0.11124400      -0.09592300      -1.25836000     260.59936000       1.89926000       2.21528000    -262.31029000      -1.89758000      -2.38224000       1.11315000      -0.92650000      -1.42532000      -0.59778000      -0.92483000        0        0        0       24      -1.40102519      -0.63719875      -0.61041558
Si      -1.43900426      -0.23224000      -1.74867670      -0.10799100      -0.01161200      -0.11364900       9.16534000      27.28161000       7.30449000     -10.33277000     -28.39945000      -6.78454000       1.74669000       0.56812000       0.03368000       0.57925000      -0.54972000       0.55360000        0        0        0       30       0.37843298      -0.66432980       0.27349103
Si       1.83836123       1.79936000      -3.65349707       0.13796100       0.08996800      -0.23744600     -10.54081000     235.85870000      13.44699000      11.11502000    -238.08841000     -15.00987000      -0.08399000       2.87014000       1.73643000       0.49021000       0.64044000       0.17352000        0        0        0       25       0.44134196       0.56298253       0.18961457
Si       2.09445871      -0.47464000      -3.44463877       0.15718000      -0.02373200      -0.22387200      -3.54815000      17.33875000      23.90723000       3.89596000     -15.87483000     -25.66208000      -0.52393000      -2.08956000       2.76255000      -0.17612000      -0.62564000       1.00767000        0        0        0       32      -0.13940597      -0.68304238       0.97655955
Si      -0.17557315      -1.19126000      -3.74218569      -0.01317600      -0.05956300      -0.24321000      -1.60697000     -33.43573000      27.15387000       1.50302000      34.27450000     -27.83680000      -0.17900000      -1.52112000       1.44201000      -0.28296000      -0.68234000       0.75906000        0        0        0       32      -0.18324607      -0.52626555       0.88480940
Si      -0.35363812      -3.98290000      -3.46881118      -0.02653900      -0.19914500      -0.22544300      -8.86811000    -223.99549000      54.31056000       7.50499000     223.64352000     -54.39971000       0.51611000       0.59402000       2.56478000      -0.84701000       0.24204000       2.47560000        0        0        0       25      -0.29731884       0.13028028       2.55681733
Si       3.23760302      -1.15214000      -1.24613352       0.24296800      -0.05760700      -0.08098800     -13.40844000     -29.56204000       2.07360000      13.98816000      31.00548000      -1.63536000      -1.37440000      -2.10097000      -1.65218000      -0.79469000      -0.65752000      -1.21397000        0        0        0       33      -0.76982734      -0.82455017      -1.22495590
Si      -3.75046425      -3.70572000      -1.70674810      -0.28145600      -0.18528600      -0.11092400      14.61474000    -226.61750000      13.84493000     -16.78138000     226.02413000     -14.21820000       2.70738000       0.92473000       0.96378000       0.54074000       0.33136000       0.59048000        0        0        0       25       0.69394033       0.36584870       0.73639225
Si       1.15648287      -4.39602000      -1.44005140       0.08678900      -0.21980100      -0.09359100      -2.05540000    -277.43836000      10.04493000       1.71693000     275.47603000     -10.09531000      -1.22434000       2.03518000      -0.10253000      -1.56282000       0.07285000      -0.15294000        0        0        0       20      -1.64063121       0.07824943      -0.11464795
Si      -2.59745926      -4.66596000      -3.76268070      -0.19492800      -0.23329800      -0.24454200     -34.65926000    -285.84764000      12.03482000      35.01552000     282.95082000     -12.04952000      -0.05913000       3.03104000      -0.12844000       0.29712000       0.13422000      -0.14316000        0        0        0       19       0.16732385       0.39273315      -0.28526512
Si       5.88573812       1.88652000       1.98359998       0.44169900       0.09432600       0.12891700       2.85179000     213.75012000       5.76394000      -3.07680000    -215.36872000      -6.41556000      -1.17424000       2.25880000       0.92929000      -1.39926000       0.64020000       0.27764000        0        0        0       25      -0.93940428       0.37306588       0.30425436
Si       4.12602236       2.52856000       0.37494174       0.30964000       0.12642800       0.02436800      -8.54005000     260.53911000      10.37521000       8.36883000    -259.05772000     -10.18246000       0.77795000      -1.19682000      -0.12959000       0.60672000       0.28457000       0.06313000        0        0        0       22       0.53810934       0.21261724       0.41759833
Si       4.84160021       3.66096000       3.71132008       0.36334100       0.18304800       0.24120400      16.95397000     297.83047000     -42.90862000     -15.74484000    -297.01030000      44.68693000      -0.80662000      -0.73523000      -2.26798000       0.40250000       0.08495000      -0.48969000        0        0        0       18      -0.36013272      -0.28946455      -1.19806469
Si       5.67947697      -0.48084000       2.87531755       0.42622000      -0.02404200       0.18687100      -0.73831000      10.31478000       4.17499000       1.17303000      -9.82905000      -3.62503000       0.11011000      -0.71838000      -1.59544000       0.54482000      -0.23265000      -1.04550000        0        0        0       34       0.36707749      -0.49550297      -1.15682180
Si      -5.71724066       1.99494000       0.48034025      -0.42905400       0.09974700       0.03121800      17.51823000     236.97869000      22.92368000     -19.43459000    -237.00554000     -24.45227000       3.51377000       0.37862000       1.38187000       1.59742000       0.35178000      -0.14675000        0        0        0       26       1.43568158       0.06689161       0.06013005
Si      -4.21336920      -0.00696000       0.37246449      -0.31619500      -0.00034800       0.02420700      11.19620000      51.08370000      -1.90146000     -10.50688000     -51.70665000       2.45792000      -0.14565000       0.07930000      -1.14878000       0.54366000      -0.54365000      -0.59234000        0        0        0       31       0.07117590      -0.57172410      -0.33419386
Si      -6.39524138      -0.78614000       0.57515275      -0.47993500      -0.03930700       0.03738000      -6.30264000     -14.31402000       4.74261000       6.38318000      12.75379000      -5.37040000      -2.36451000       1.38770000       0.35065000      -2.28397000      -0.17253000      -0.27716000        0        0        0       32      -2.09509684      -0.37720041      -0.18245549
Si       6.46747742      -3.24448000       0.17309974       0.48535600      -0.16222400       0.01125000      13.14139000    -201.42397000      -1.66614000     -14.61743000     200.97006000       1.21014000       3.80429000       0.21491000       0.14130000       2.32825000      -0.23899000      -0.31472000        0        0        0       26       2.22051708      -0.12061398      -0.08897735
Si      -3.62227559      -0.97844000       2.42362723      -0.27183600      -0.04892200       0.15751500     -10.02218000     -23.29577000       5.87865000      11.38219000      22.18298000      -6.61015000      -0.55608000       1.61118000       0.98260000       0.80392000       0.49839000       0.25108000        0        0        0       30       0.70872643       0.78257223       0.24101124
Si       3.01527166      -3.27268000       2.14846788       0.22628300      -0.16363400       0.13963200     -11.35318000    -203.01798000       7.27054000      11.37217000     202.44160000      -7.61174000       0.46705000       0.92826000       0.31212000       0.48604000       0.35188000      -0.02911000        0        0        0       24       0.60219188       0.30347404      -0.15276147
Si      -5.85449047      -3.90262000       2.28822476      -0.43935400      -0.19513100       0.14871500      14.97748000    -253.92632000     -16.56964000     -15.20201000     255.00485000      17.93972000       0.68819000      -1.22924000      -0.79920000       0.46365000      -0.15071000       0.57085000        0        0        0       22       0.39644997       0.01455218       0.37666805
Si       4.28196746      -3.48286000       0.17468457       0.32134300      -0.17414300       0.01135300       0.02742000    -231.59295000       7.74895000       0.60731000     231.48520000      -7.59790000      -1.90877000       0.25962000      -0.12212000      -1.27404000       0.15188000       0.02890000        0        0        0       22      -1.58030287      -0.07194554       0.02206607
Si      -4.91546193       2.70702000      -7.57313692      -0.36888400       0.13535100      -0.49218900      -0.23676000     255.74972000     -65.40257000       0.25808000    -254.25195000      64.72284000      -0.46668000      -1.56971000       0.03503000      -0.44536000      -0.07194000      -0.64473000        0        0        0       23      -0.01278529      -0.05170483      -0.33318063
Si       3.01697729       3.45406000       5.13656953       0.22641100       0.17270300       0.33383300     -11.58095000     292.95494000     -10.79261000      12.50040000    -293.50073000       8.35292000       0.05559000       0.48248000       2.14163000       0.97504000      -0.06331000      -0.29808000        0        0        0       20       1.01103232       0.01776913       0.46387569
Si       5.81908535       2.78132000       5.60964728       0.43669700       0.13906600       0.36457900      52.50126000     261.26714000       7.34412000     -51.97792000    -259.01596000      -8.10740000      -0.22101000      -1.95067000       1.13912000       0.30233000       0.30052000       0.37582000        0        0        0       23       0.09734231       0.07748893       0.40745007
Si       4.98118193       0.55384000       6.53569245       0.37381600       0.02769200       0.42476400      13.83150000      75.69212000     -13.81844000     -14.94027000     -76.77732000      16.14463000       0.66020000       1.99577000      -3.23711000      -0.44857000       0.91057000      -0.91095000        0        0        0       32      -0.39801876       0.50333571      -1.19214592
Si      -6.62311604       1.08394000       4.25623808      -0.49703600       0.05419700       0.27661900      28.10952000     143.21124000      10.47297000     -28.56887000    -142.55408000     -11.08517000       0.34153000      -0.90062000       0.72198000      -0.11782000      -0.24345000       0.10975000        0        0        0       29       0.26379593      -0.23273117       0.21677611
Si      -4.41283448       0.20196000       4.40110333      -0.33116400       0.01009800       0.28603400     -18.15234000      82.93115000      10.69658000      19.51626000     -82.39079000     -11.27700000      -1.75266000      -1.28522000       0.14201000      -0.38875000      -0.74486000      -0.43844000        0        0        0       28      -0.45077957      -0.84393553      -0.53473539
Si      -6.66001358      -2.48884000       3.99444972      -0.49980500      -0.12444200       0.25960500      15.07251000    -105.87372000      18.21819000     -14.47522000     105.66646000     -19.29885000      -1.16095000      -0.30141000       1.58588000      -0.56367000      -0.50866000       0.50520000        0        0        0       27      -0.82699720       0.03278500      -0.01543411
Si       6.45536479      -5.22852000       4.18567493       0.48444700      -0.26142600       0.27203300       4.69601000    -324.65686000      -3.91314000      -4.92741000     323.41698000       4.67273000      -0.42883000       1.71321000      -1.70442000      -0.66023000       0.47333000      -0.94486000        0        0        0       15      -0.76663584       0.19549143      -1.20376469
Si      -3.76546845      -1.20510000       6.23042144      -0.28258200      -0.06025500       0.40492400     -16.05193000     -42.48126000      -2.79625000      15.91567000      40.83180000       3.67242000       1.14729000       2.13060000      -0.41032000       1.01102000       0.48113000       0.46582000        0        0        0       31       0.75234952       1.09170513       0.48173185
Si       3.12228654      -3.02424000       5.75203529       0.23431400      -0.15121200       0.37383300      -9.07008000    -187.90137000       6.74157000       9.53106000     188.22278000      -7.79810000      -0.17991000      -2.03511000       2.67281000       0.28106000      -1.71369000       1.61625000        0        0        0       24       0.28588738      -1.43677048       1.53628459
Si      -6.31211863      -3.94960000       6.06419952      -0.47369700      -0.19748000       0.39412100      21.14990000    -237.89298000      27.01743000     -22.19124000     237.18130000     -28.61418000       1.64839000       1.22545000       1.01799000       0.60704000       0.51377000      -0.57878000        0        0        0       23       0.55673911       0.70588627      -0.27355532
Si       4.45618143      -3.66194000       4.01154428       0.33441700      -0.18309700       0.26071600     -12.79861000    -233.00538000      -3.47734000      12.57352000     233.83283000       3.22055000       1.03485000      -1.28070000      -0.61057000       0.80976000      -0.45324000      -0.86738000        0        0        0       23       0.88931223      -0.26490871      -0.57132823
Si      -6.28326952       2.62416000      -5.72567797      -0.47153200       0.13120800      -0.37212000     -13.46266000     229.21754000      -1.40550000      12.34514000    -227.84382000      -0.15252000       0.55723000      -1.37385000       2.42934000      -0.56029000      -0.00012000       0.87129000        0        0        0       22       0.02669113       0.69060470       0.95452204