96
Lattice="13.325224 0.0 0.0 0.0 15.0 0.0 0.0 0.0 15.386644" Properties=species:S:1:pos:R:3:frac_pos:R:3:map_shift:I:3:n_neighb:I:1:dft_force:R:3 task=MolecularDynamics cut_off_energy="250 eV" spin_polarized=F opt_strategy=speed xc_functional=PBE elec_energy_tol=1e-07 max_scf_cycles=250 fix_occupancy=F calculate_stress=T finite_basis_corr=automatic smearing_width="0.01 eV" grid_scale=2.5 md_delta_t="1 fs" md_ensemble=NVT md_ion_t="0.1 ps" md_cell_t="5 ps" md_num_iter=5000 md_temperature="1000 K" md_thermostat=Langevin num_dump_cycles=-1 castep_file_name=pandey.castep config_type=surface_111_pandey dft_energy=-15625.32074 virial="-42.06466044 -3.07290421 0.13546062 -3.07290421 -14.51265663 -0.29748742 0.13546062 -0.29748742 -13.56999887" cutoff_factor=1.2 cutoff=-1.0 nneightol=1.2 pbc="T T T"
Si       0.85851753       2.69563500       1.92480762       0.06442800       0.17970900       0.12509600        0        0        0        0       0.03537000      -0.67276000       0.01500000
Si      -2.54643698       2.77257000       0.00595463      -0.19109900       0.18483800       0.00038700        0        0        0        0      -0.06391000      -0.45234000      -0.08143000
Si      -1.40661065       2.06155500       1.91974541      -0.10556000       0.13743700       0.12476700        0        0        0        0       0.03850000       0.88844000       0.08509000
Si      -1.40446528      -0.27499500       1.92768492      -0.10539900      -0.01833300       0.12528300        0        0        0        0       0.23151000       0.01249000       0.00549000
Si       1.94837428       1.85679000      -0.00184640       0.14621700       0.12378600      -0.00012000        0        0        0        0      -0.14010000       0.44240000       0.00290000
Si       1.93173107      -0.52989000       0.00692399       0.14496800      -0.03532600       0.00045000        0        0        0        0      -0.16011000      -0.29614000      -0.13105000
Si      -0.38759079      -1.15179000       0.00350815      -0.02908700      -0.07678600       0.00022800        0        0        0        0       0.42227000       0.14251000      -0.07533000
Si       0.69292497      -4.83816000      -0.00518530       0.05200100      -0.32254400      -0.00033700        0        0        0        0       1.04199000       0.47772000       0.04814000
Si       3.11118662      -1.21119000       1.91954539       0.23348100      -0.08074600       0.12475400        0        0        0        0      -0.19141000      -0.19194000       0.05704000
Si      -2.65722289      -3.43609500       1.92750028      -0.19941300      -0.22907300       0.12527100        0        0        0        0       0.06577000      -0.36636000       0.01707000
Si       2.06854115      -4.85536500       1.93028526       0.15523500      -0.32369100       0.12545200        0        0        0        0      -1.05411000       0.43357000      -0.12131000
Si      -1.22902539      -3.38574000       0.00421594      -0.09223300      -0.22571600       0.00027400        0        0        0        0      -0.10952000      -0.53662000      -0.02265000
Si       0.86368772       2.68860000       5.76599097       0.06481600       0.17924000       0.37474000        0        0        0        0      -0.10495000      -0.61365000       0.00745000
Si      -2.54855569       2.76882000       3.85053843      -0.19125800       0.18458800       0.25025200        0        0        0        0      -0.09714000      -0.45943000      -0.10327000
Si      -1.40887593       2.05821000       5.76066719      -0.10573000       0.13721400       0.37439400        0        0        0        0       0.05418000       1.05184000       0.16157000
Si      -1.39693653      -0.25939500       5.76716036      -0.10483400      -0.01729300       0.37481600        0        0        0        0       0.08305000      -0.27586000       0.00131000
Si       1.95039971       1.85182500       3.85212326       0.14636900       0.12345500       0.25035500        0        0        0        0      -0.02508000       0.49613000      -0.09157000
Si       1.94063232      -0.52713000       3.84432223       0.14563600      -0.03514200       0.24984800        0        0        0        0      -0.20089000      -0.31818000      -0.02384000
Si      -0.37503843      -1.15479000       3.84476844      -0.02814500      -0.07698600       0.24987700        0        0        0        0       0.36650000       0.04712000       0.04832000
Si       0.68614243      -4.83814500       3.83730592       0.05149200      -0.32254300       0.24939200        0        0        0        0       1.12809000       0.40905000       0.12161000
Si       3.10985410      -1.21458000       5.76415996       0.23338100      -0.08097200       0.37462100        0        0        0        0      -0.20917000      -0.05605000       0.10415000
Si      -2.65903512      -3.43258500       5.76586788      -0.19954900      -0.22883900       0.37473200        0        0        0        0       0.05756000      -0.41145000       0.05429000
Si       2.07228554      -4.86361500       5.76612945       0.15551600      -0.32424100       0.37474900        0        0        0        0      -1.10580000       0.45026000       0.01194000
Si      -1.22328221      -3.40441500       3.85443126      -0.09180200      -0.22696100       0.25050500        0        0        0        0      -0.16142000      -0.33736000      -0.08580000
Si       0.85818440       2.67805500       9.61683714       0.06440300       0.17853700       0.62501200        0        0       -1        0       0.06172000      -0.62159000       0.05525000
Si      -2.55400571       2.77534500       7.69789183      -0.19166700       0.18502300       0.50029700        0        0       -1        0      -0.01339000      -0.50145000      -0.05786000
Si      -1.40018789       2.06391000       9.62260713      -0.10507800       0.13759400       0.62538700        0        0       -1        0      -0.06648000       0.90826000      -0.07710000
Si      -1.40798314      -0.26505000       9.62836174      -0.10566300      -0.01767000       0.62576100        0        0       -1        0       0.25129000      -0.12259000      -0.14370000
Si       1.94017926       1.86336000       7.69070627       0.14560200       0.12422400       0.49983000        0        0        0        0       0.04952000       0.35970000       0.00774000
Si       1.93520896      -0.53380500       7.70053834       0.14522900      -0.03558700       0.50046900        0        0       -1        0      -0.19993000      -0.22543000      -0.13786000
Si      -0.38306021      -1.15555500       7.69344509      -0.02874700      -0.07703700       0.50000800        0        0       -1        0       0.32961000       0.10061000       0.05570000
Si       0.68555612      -4.84300500       7.69493760       0.05144800      -0.32286700       0.50010500        0        0       -1        0       1.13559000       0.44984000      -0.02692000
Si       3.11050704      -1.22251500       9.60917459       0.23343000      -0.08150100       0.62451400        0        0       -1        0      -0.17353000      -0.00187000       0.18311000
Si      -2.66171349      -3.42784500       9.62189935      -0.19975000      -0.22852300       0.62534100        0        0       -1        0       0.14192000      -0.50282000      -0.02336000
Si       2.07381794      -4.86013500       9.61889895       0.15563100      -0.32400900       0.62514600        0        0       -1        0      -1.05312000       0.44873000      -0.07559000
Si      -1.23149055      -3.40369500       7.69393747      -0.09241800      -0.22691300       0.50004000        0        0       -1        0      -0.13726000      -0.35366000       0.00977000
Si       0.85557266       2.69701500      13.45983612       0.06420700       0.17980100       0.87477400        0        0       -1        0       0.09055000      -0.65077000       0.01407000
Si      -2.54334553       2.77987500      11.53618250      -0.19086700       0.18532500       0.74975300        0        0       -1        0      -0.21803000      -0.51342000       0.06896000
Si      -1.40341259       2.06419500      13.46320579      -0.10532000       0.13761300       0.87499300        0        0       -1        0      -0.04978000       0.93426000       0.00160000
Si      -1.40509157      -0.26608500      13.45643567      -0.10544600      -0.01773900       0.87455300        0        0       -1        0       0.17681000      -0.17260000      -0.00155000
Si       1.96035365       1.85496000      11.54190633       0.14711600       0.12366400       0.75012500        0        0       -1        0      -0.20068000       0.48728000       0.00702000
Si       1.93692791      -0.51727500      11.54658387       0.14535800      -0.03448500       0.75042900        0        0       -1        0      -0.13008000      -0.44669000      -0.12283000
Si      -0.37649088      -1.16566500      11.53045867      -0.02825400      -0.07771100       0.74938100        0        0       -1        0       0.40857000       0.19761000       0.14092000
Si       0.68579598      -4.84396500      11.52595038       0.05146600      -0.32293100       0.74908800        0        0       -1        0       1.10751000       0.43664000       0.12143000
Si       3.11586378      -1.22220000      13.46189793       0.23383200      -0.08148000       0.87490800        0        0       -1        0      -0.31655000      -0.01171000       0.07049000
Si      -2.66476497      -3.43351500      13.46832955      -0.19997900      -0.22890100       0.87532600        0        0       -1        0       0.15761000      -0.42145000      -0.03555000
Si       2.07020680      -4.85995500      13.45938991       0.15536000      -0.32399700       0.87474500        0        0       -1        0      -1.06819000       0.45742000      -0.05358000
Si      -1.22385520      -3.39633000      11.54061385      -0.09184500      -0.22642200       0.75004100        0        0       -1        0      -0.20132000      -0.48035000       0.02810000
Si       7.52983090       2.70027000       1.91525251       0.56508100       0.18001800       0.12447500       -1        0        0        0      -0.08461000      -0.62771000       0.15320000
Si       4.11199090       2.77185000       0.00610850       0.30858700       0.18479000       0.00039700        0        0        0        0       0.03946000      -0.48180000      -0.02208000
Si       5.25865307       2.05813500       1.93303947       0.39463900       0.13720900       0.12563100        0        0        0        0       0.07173000       0.96135000      -0.07412000
Si       5.26246409      -0.27315000       1.92276119       0.39492500      -0.01821000       0.12496300        0        0        0        0       0.10024000      -0.02593000      -0.00504000
Si       8.60889422       1.85563500       0.00606234       0.64606000       0.12370900       0.00039400       -1        0        0        0       0.01949000       0.36401000      -0.04825000
Si       8.60776157      -0.53118000      -0.00172330       0.64597500      -0.03541200      -0.00011200       -1        0        0        0      -0.20284000      -0.30107000       0.05373000
Si       6.28385583      -1.14634500       0.00435442       0.47157600      -0.07642300       0.00028300        0        0        0        0       0.42901000      -0.01578000      -0.05666000
Si       7.36191976      -4.82940000      -0.00632391       0.55248000      -0.32196000      -0.00041100       -1        0        0        0       0.93594000       0.48503000       0.02735000
Si       9.78467201      -1.21531500       1.92765415       0.73429700      -0.08102100       0.12528100       -1        0        0        0      -0.42092000      -0.09801000       0.01982000
Si       4.00163139      -3.44517000       1.92460759       0.30030500      -0.22967800       0.12508300        0        0        0        0       0.05516000      -0.22665000      -0.04649000
Si       8.72959410      -4.86258000       1.91392926       0.65511800      -0.32417200       0.12438900       -1        0        0        0      -0.96693000       0.47604000       0.09519000
Si       5.42977560      -3.39415500      -0.00103091       0.40748100      -0.22627700      -0.00006700        0        0        0        0      -0.08414000      -0.43091000      -0.00829000
Si       7.53144326       2.70099000       5.77240720       0.56520200       0.18006600       0.37515700       -1        0        0        0      -0.13772000      -0.65298000      -0.00148000
Si       4.12623556       2.76915000       3.85627765       0.30965600       0.18461000       0.25062500        0        0        0        0      -0.17777000      -0.44243000      -0.07434000
Si       5.25175061       2.05939500       5.77117627       0.39412100       0.13729300       0.37507700        0        0        0        0       0.18953000       0.91669000       0.07215000
Si       5.26969968      -0.27336000       5.77068390       0.39546800      -0.01822400       0.37504500        0        0        0        0       0.05944000      -0.06882000      -0.04462000
Si       8.60626915       1.84953000       3.85024609       0.64586300       0.12330200       0.25023300       -1        0        0        0      -0.05083000       0.50905000      -0.06153000
Si       8.59354356      -0.52668000       3.85112313       0.64490800      -0.03511200       0.25029000       -1        0        0        0      -0.08782000      -0.34532000      -0.10094000
Si       6.28569471      -1.14705000       3.84147570       0.47171400      -0.07647000       0.24966300        0        0        0        0       0.34242000      -0.01366000       0.04056000
Si       7.35411117      -4.83675000       3.84855356       0.55189400      -0.32245000       0.25012300       -1        0        0        0       1.02953000       0.47854000      -0.06789000
Si       9.77060057      -1.22305500       5.76312906       0.73324100      -0.08153700       0.37455400       -1        0        0        0      -0.15686000      -0.00057000       0.06371000
Si       3.99711414      -3.43231500       5.77463827       0.29996600      -0.22882100       0.37530200        0        0        0        0       0.14897000      -0.34600000      -0.05957000
Si       8.73332516      -4.86493500       5.76751425       0.65539800      -0.32432900       0.37483900       -1        0        0        0      -0.96704000       0.46992000      -0.00699000
Si       5.43084162      -3.39198000       3.83769059       0.40756100      -0.22613200       0.24941700        0        0        0        0      -0.08778000      -0.44663000       0.13464000
Si       7.52550021       2.69403000       9.61268275       0.56475600       0.17960200       0.62474200       -1        0       -1        0      -0.11247000      -0.59490000       0.01744000
Si       4.12039911       2.77587000       7.69461448       0.30921800       0.18505800       0.50008400        0        0       -1        0      -0.15053000      -0.46865000      -0.02209000
Si       5.25809341       2.05504500       9.61000547       0.39459700       0.13700300       0.62456800        0        0       -1        0       0.03414000       1.01038000       0.06693000
Si       5.26989956      -0.26683500       9.60886686       0.39548300      -0.01778900       0.62449400        0        0       -1        0       0.06773000      -0.22683000       0.06223000
Si       8.59902023       1.84861500       7.69772258       0.64531900       0.12324100       0.50028600       -1        0       -1        0       0.05539000       0.41663000      -0.04768000
Si       8.59831399      -0.53295000       7.68949073       0.64526600      -0.03553000       0.49975100       -1        0        0        0      -0.05586000      -0.36013000       0.10181000
Si       6.28770682      -1.15788000       7.68761356       0.47186500      -0.07719200       0.49962900        0        0        0        0       0.39763000       0.08258000       0.04900000
Si       7.36062721      -4.83840000       7.69012158       0.55238300      -0.32256000       0.49979200       -1        0        0        0       0.95501000       0.49312000      -0.01527000
Si       9.78456541      -1.22881500       9.62748470       0.73428900      -0.08192100       0.62570400       -1        0       -1        0      -0.47194000       0.10058000      -0.11996000
Si       4.00572224      -3.43642500       9.61946826       0.30061200      -0.22909500       0.62518300        0        0       -1        0       0.08655000      -0.34742000       0.02327000
Si       8.73117980      -4.85506500       9.60854374       0.65523700      -0.32367100       0.62447300       -1        0       -1        0      -0.97885000       0.45231000       0.07581000
Si       5.43450606      -3.38985000       7.69796877       0.40783600      -0.22599000       0.50030200        0        0       -1        0      -0.09944000      -0.52301000      -0.04307000
Si       7.52956440       2.68440000      13.46888347       0.56506100       0.17896000       0.87536200       -1        0       -1        0      -0.10143000      -0.60437000       0.00280000
Si       4.11454934       2.77525500      11.53529007       0.30877900       0.18501700       0.74969500        0        0       -1        0       0.08119000      -0.43072000       0.01511000
Si       5.26094501       2.06070000      13.46332889       0.39481100       0.13738000       0.87500100        0        0       -1        0      -0.03092000       0.92517000       0.01725000
Si       5.26559552      -0.27549000      13.46043620       0.39516000      -0.01836600       0.87481300        0        0       -1        0       0.11829000      -0.02150000       0.04267000
Si       8.58979917       1.85767500      11.53825970       0.64462700       0.12384500       0.74988800       -1        0       -1        0       0.19251000       0.43957000      -0.01078000
Si       8.59520921      -0.52519500      11.54056769       0.64503300      -0.03501300       0.75003800       -1        0       -1        0      -0.10987000      -0.35769000       0.03380000
Si       6.28590792      -1.15881000      11.54269105       0.47173000      -0.07725400       0.75017600        0        0       -1        0       0.34400000       0.05736000      -0.09588000
Si       7.36442490      -4.83970500      11.54324497       0.55266800      -0.32264700       0.75021200       -1        0       -1        0       0.96672000       0.49482000      -0.05920000
Si       9.77346549      -1.22883000      13.46372894       0.73345600      -0.08192200       0.87502700       -1        0       -1        0      -0.26964000       0.05728000      -0.05511000
Si       4.00181795      -3.43672500      13.45691266       0.30031900      -0.22911500       0.87458400        0        0       -1        0       0.05698000      -0.37883000       0.09664000
Si       8.73074007      -4.86432000      13.46543686       0.65520400      -0.32428800       0.87513800       -1        0       -1        0      -0.92334000       0.45657000      -0.03110000
Si       5.43212084      -3.40285500      11.54935347       0.40765700      -0.22685700       0.75060900        0        0       -1        0      -0.03103000      -0.42603000      -0.10003000
96
Lattice="13.325224 0.0 0.0 0.0 15.0 0.0 0.0 0.0 15.386644" Properties=species:S:1:pos:R:3:frac_pos:R:3:map_shift:I:3:n_neighb:I:1:dft_force:R:3 task=MolecularDynamics cut_off_energy="250 eV" spin_polarized=F opt_strategy=speed xc_functional=PBE elec_energy_tol=1e-07 max_scf_cycles=250 fix_occupancy=F calculate_stress=T finite_basis_corr=automatic smearing_width="0.01 eV" grid_scale=2.5 md_delta_t="1 fs" md_ensemble=NVT md_ion_t="0.1 ps" md_cell_t="5 ps" md_num_iter=5000 md_temperature="1000 K" md_thermostat=Langevin num_dump_cycles=-1 castep_file_name=pandey.castep config_type=surface_111_pandey dft_energy=-15619.366568 virial="-18.20261018 2.0056887 2.23881458 2.0056887 -34.78328237 -4.37629762 2.23881458 -4.37629762 1.32552549" cutoff_factor=1.2 cutoff=-1.0 nneightol=1.2 pbc="T T T"
Si       0.95703091       2.55043500       2.01541956       0.07182100       0.17002900       0.13098500        0        0        0        0      -0.92335000       0.05219000      -1.26546000
Si      -2.67818347       2.65575000      -0.00032312      -0.20098600       0.17705000      -0.00002100        0        0        0        0       0.75887000       0.31293000      -0.17638000
Si      -1.41472571       2.30110500       1.93210089      -0.10616900       0.15340700       0.12557000        0        0        0        0       0.55038000      -0.18166000      -0.25937000
Si      -1.19693825      -0.10668000       2.08438250      -0.08982500      -0.00711200       0.13546700        0        0        0        0      -0.62333000      -0.81190000      -0.23573000
Si       1.79169629       2.03596500      -0.16999164       0.13445900       0.13573100      -0.01104800        0        0        0        0       0.52829000      -0.93445000       0.79817000
Si       1.86265311      -0.65271000      -0.06720886       0.13978400      -0.04351400      -0.00436800        0        0        0        0      -0.64056000       0.74025000       0.97830000
Si      -0.48879587      -1.05621000      -0.11144546      -0.03668200      -0.07041400      -0.00724300        0        0        0        0       0.15291000       0.35405000       0.14455000
Si       0.81887499      -4.57233000      -0.02511100       0.06145300      -0.30482200      -0.00163200        0        0        0        0      -0.17500000      -0.36458000      -0.82650000
Si       3.02655813      -1.18815000       1.97582973       0.22713000      -0.07921000       0.12841200        0        0        0        0       0.37798000      -0.74176000      -0.96265000
Si      -2.65367838      -3.28554000       2.15117592      -0.19914700      -0.21903600       0.13980800        0        0        0        0       0.37529000      -1.00054000      -1.25632000
Si       1.77268120      -4.45686000       1.93513206       0.13303200      -0.29712400       0.12576700        0        0        0        0       1.37555000       0.20554000       0.76934000
Si      -1.08808449      -3.37464000       0.10309051      -0.08165600      -0.22497600       0.00670000        0        0        0        0      -1.75328000       0.41039000       0.41113000
Si       0.63883789       2.66815500       5.59215267       0.04794200       0.17787700       0.36344200        0        0        0        0       1.69365000      -0.18248000      -0.03867000
Si      -2.79725767       2.66125500       3.69174827      -0.20992200       0.17741700       0.23993200        0        0        0        0       1.24863000       0.21364000       1.29498000
Si      -1.55472051       2.38267500       5.78370100      -0.11667500       0.15884500       0.37589100        0        0        0        0      -1.40180000      -0.49696000      -0.63830000
Si      -1.29461214      -0.05259000       5.85518735      -0.09715500      -0.00350600       0.38053700        0        0        0        0      -0.26187000      -0.24415000       0.07651000
Si       2.06263807       1.75044000       3.83867533       0.15479200       0.11669600       0.24948100        0        0        0        0      -1.01862000      -0.12492000       0.77579000
Si       1.89195528      -0.60891000       3.90911539       0.14198300      -0.04059400       0.25405900        0        0        0        0       0.84179000      -0.05739000       0.40587000
Si      -0.26822343      -1.27066500       4.14700829      -0.02012900      -0.08471100       0.26952000        0        0        0        0      -0.96676000       0.12775000      -1.23236000
Si       0.69003340      -4.90882500       3.90739208       0.05178400      -0.32725500       0.25394700        0        0        0        0       0.36296000      -0.71547000      -1.30810000
Si       3.12313935      -0.97363500       5.90765580       0.23437800      -0.06490900       0.38394700        0        0        0        0       0.49560000      -1.07185000      -0.57017000
Si      -2.47045655      -3.62641500       5.74464970      -0.18539700      -0.24176100       0.37335300        0        0        0        0      -0.56707000       0.74014000       0.34449000
Si       1.77102887      -4.85806500       5.80010316       0.13290800      -0.32387100       0.37695700        0        0        0        0       2.94182000       1.47152000      -1.65172000
Si      -1.13252411      -3.64384500       3.91219272      -0.08499100      -0.24292300       0.25425900        0        0        0        0      -0.54938000       1.49408000      -0.22905000
Si       0.89673427       2.00830500       9.60937462       0.06729600       0.13388700       0.62452700        0        0       -1        0      -1.44942000       0.32460000      -1.05004000
Si      -2.76394461       2.61285000       7.76730098      -0.20742200       0.17419000       0.50480800        0        0       -1        0       0.46976000       0.30890000      -0.20932000
Si      -1.55941099       2.19697500       9.70146368      -0.11702700       0.14646500       0.63051200        0        0       -1        0       1.25334000      -0.19176000      -0.28863000
Si      -1.42964996      -0.18537000       9.64373299      -0.10728900      -0.01235800       0.62676000        0        0       -1        0      -0.13049000      -0.60456000       1.08321000
Si       1.87155436       2.16625500       7.51223659       0.14045200       0.14441700       0.48823100        0        0        0        0      -0.81008000      -1.09987000       0.29230000
Si       1.71041243      -0.67074000       7.72181806       0.12835900      -0.04471600       0.50185200        0        0       -1        0       0.94626000       0.46680000       0.99944000
Si      -0.56093863      -1.20223500       7.81609203      -0.04209600      -0.08014900       0.50797900        0        0       -1        0       0.06878000      -0.80483000      -1.06242000
Si       0.95584497      -5.09277000       7.69376821       0.07173200      -0.33951800       0.50002900        0        0       -1        0      -2.81592000       0.04312000       1.66833000
Si       3.28938485      -1.36426500       9.57564709       0.24685400      -0.09095100       0.62233500        0        0       -1        0      -0.82184000       0.80395000      -0.21974000
Si      -2.67782369      -3.51433500       9.64745656      -0.20095900      -0.23428900       0.62700200        0        0       -1        0       0.94205000       0.38137000       0.45969000
Si       2.03478836      -4.59496500       9.51517758       0.15270200      -0.30633100       0.61840500        0        0       -1        0       0.55959000       0.50286000       1.52751000
Si      -1.25764797      -3.77401500       7.71293997      -0.09438100      -0.25160100       0.50127500        0        0       -1        0       0.83339000       0.78450000       0.70135000
Si       0.83241342       2.85289500      13.26207158       0.06246900       0.19019300       0.86192100        0        0       -1        0      -1.12456000       0.21091000       0.67510000
Si      -2.71721305       2.71735500      11.60092950      -0.20391500       0.18115700       0.75396100        0        0       -1        0       0.48700000       0.28955000       0.21035000
Si      -1.51068064       2.11701000      13.45201970      -0.11337000       0.14113400       0.87426600        0        0       -1        0       0.94381000      -0.26587000      -0.08414000
Si      -1.36977973      -0.34789500      13.06127588      -0.10279600      -0.02319300       0.84887100        0        0       -1        0       0.05988000       0.19411000       1.17191000
Si       2.03626746       1.99515000      11.54041383       0.15281300       0.13301000       0.75002800        0        0       -1        0       1.45408000      -1.03518000       0.42800000
Si       2.08257261      -0.59589000      11.50833267       0.15628800      -0.03972600       0.74794300        0        0       -1        0       0.75698000       0.58765000      -0.34054000
Si      -0.04128154      -1.40811000      11.38630120      -0.00309800      -0.09387400       0.74001200        0        0       -1        0      -2.09181000       0.38642000      -0.19245000
Si       0.63801173      -5.04147000      11.38382395       0.04788000      -0.33609800       0.73985100        0        0       -1        0       0.38456000       0.00802000      -0.59248000
Si       3.01842974      -1.35304500      13.49213268       0.22652000      -0.09020300       0.87687300        0        0       -1        0       0.98622000       0.24164000      -0.43481000
Si      -2.54146667      -3.65758500      13.58246767      -0.19072600      -0.24383900       0.88274400        0        0       -1        0       0.35134000       1.03378000       0.06259000
Si       1.78426082      -4.83877500      13.30298467       0.13390100      -0.32258500       0.86458000        0        0       -1        0       0.95158000       0.64434000       0.58135000
Si      -1.17708366      -3.59829000      11.64613546      -0.08833500      -0.23988600       0.75689900        0        0       -1        0      -0.37318000       0.40223000      -0.92605000
Si       7.53830575       2.99485500       1.97855317       0.56571700       0.19965700       0.12858900       -1        0        0        0       1.13988000       0.34386000      -1.29705000
Si       4.08723263       2.59359000       0.13934145       0.30672900       0.17290600       0.00905600        0        0        0        0      -0.12231000      -0.34584000      -0.02027000
Si       5.43130800       2.26101000       2.08373626       0.40759600       0.15073400       0.13542500        0        0        0        0      -1.65790000       0.34572000       0.16257000