144
Lattice="16.35000126 0.0 0.0 0.0 16.35000126 0.0 0.0 0.0 20.90000161" Properties=species:S:1:pos:R:3:dft_force:R:3 config_type=surface_001 dft_energy=-23426.173049 cutoff_factor=1.2 cutoff=-1.0 nneightol=1.2 pbc="T T T"
Si       0.00000000       0.00000000       0.00000000       0.00000000       0.00002000       0.04067000
Si       1.36250011       1.36250011       1.36250011      -0.00001000       0.00001000      -0.07702000
Si       2.72500021       2.72500021       0.00000000      -0.00003000       0.00001000       0.04068000
Si       4.08750032       4.08750032       1.36250011      -0.00002000       0.00000000      -0.07702000
Si       2.72500021       0.00000000       2.72500021       0.00000000       0.00000000       0.03365000
Si       4.08750032       1.36250011       4.08750032      -0.00002000       0.00001000      -0.08745000
Si       0.00000000       2.72500021       2.72500021       0.00001000       0.00000000       0.03364000
Si       1.36250011       4.08750032       4.08750032       0.00000000       0.00001000      -0.08749000
Si       0.00000000       0.00000000       5.45000042       0.00003000      -0.00002000       0.08679000
Si       1.36250011       1.36250011       6.81250053       0.00001000      -0.00002000      -0.03408000
Si       2.72500021       2.72500021       5.45000042       0.00002000      -0.00003000       0.08678000
Si       4.08750032       4.08750032       6.81250053       0.00003000       0.00000000      -0.03408000
Si       2.72500021       0.00000000       8.17500063       0.00002000      -0.00003000       0.07735000
Si       4.08750032       1.36250011       9.53750074       0.00003000      -0.00003000      -0.03987000
Si       0.00000000       2.72500021       8.17500063       0.00001000      -0.00001000       0.07731000
Si       1.36250011       4.08750032       9.53750074       0.00001000       0.00000000      -0.03986000
Si       0.00000000       5.45000042       0.00000000       0.00000000       0.00000000       0.04075000
Si       1.36250011       6.81250053       1.36250011      -0.00001000      -0.00001000      -0.07701000
Si       2.72500021       8.17500063       0.00000000      -0.00003000      -0.00001000       0.04070000
Si       4.08750032       9.53750074       1.36250011      -0.00001000      -0.00001000      -0.07700000
Si       2.72500021       5.45000042       2.72500021      -0.00001000      -0.00001000       0.03364000
Si       4.08750032       6.81250053       4.08750032       0.00001000       0.00000000      -0.08746000
Si       0.00000000       8.17500063       2.72500021      -0.00002000       0.00000000       0.03365000
Si       1.36250011       9.53750074       4.08750032       0.00000000       0.00001000      -0.08746000
Si       0.00000000       5.45000042       5.45000042      -0.00002000       0.00002000       0.08678000
Si       1.36250011       6.81250053       6.81250053       0.00000000       0.00002000      -0.03409000
Si       2.72500021       8.17500063       5.45000042      -0.00002000       0.00000000       0.08680000
Si       4.08750032       9.53750074       6.81250053       0.00001000       0.00003000      -0.03408000
Si       2.72500021       5.45000042       8.17500063       0.00001000       0.00001000       0.07731000
Si       4.08750032       6.81250053       9.53750074       0.00002000       0.00002000      -0.03993000
Si       0.00000000       8.17500063       8.17500063      -0.00002000       0.00003000       0.07733000
Si       1.36250011       9.53750074       9.53750074      -0.00001000       0.00003000      -0.03994000
Si       0.00000000      10.90000084       0.00000000      -0.00001000      -0.00001000       0.04070000
Si       1.36250011      12.26250095       1.36250011      -0.00002000       0.00000000      -0.07701000
Si       2.72500021      13.62500105       0.00000000      -0.00004000       0.00000000       0.04062000
Si       4.08750032      14.98750116       1.36250011      -0.00003000       0.00001000      -0.07701000
Si       2.72500021      10.90000084       2.72500021      -0.00003000      -0.00001000       0.03366000
Si       4.08750032      12.26250095       4.08750032      -0.00001000       0.00001000      -0.08743000
Si       0.00000000      13.62500105       2.72500021       0.00000000      -0.00001000       0.03365000
Si       1.36250011      14.98750116       4.08750032      -0.00001000       0.00000000      -0.08745000
Si       0.00000000      10.90000084       5.45000042      -0.00001000       0.00001000       0.08681000
Si       1.36250011      12.26250095       6.81250053      -0.00001000       0.00001000      -0.03404000
Si       2.72500021      13.62500105       5.45000042       0.00000000      -0.00001000       0.08682000
Si       4.08750032      14.98750116       6.81250053      -0.00001000       0.00000000      -0.03403000
Si       2.72500021      10.90000084       8.17500063      -0.00002000       0.00002000       0.07734000
Si       4.08750032      12.26250095       9.53750074       0.00000000       0.00001000      -0.03996000
Si       0.00000000      13.62500105       8.17500063       0.00001000      -0.00002000       0.07735000
Si       1.36250011      14.98750116       9.53750074       0.00002000      -0.00004000      -0.03990000
Si       5.45000042       0.00000000       0.00000000      -0.00002000       0.00003000       0.04056000
Si       6.81250053       1.36250011       1.36250011      -0.00002000       0.00002000      -0.07701000
Si       8.17500063       2.72500021       0.00000000       0.00001000       0.00002000       0.04060000
Si       9.53750074       4.08750032       1.36250011       0.00001000       0.00001000      -0.07702000
Si       8.17500063       0.00000000       2.72500021       0.00000000       0.00002000       0.03367000
Si       9.53750074       1.36250011       4.08750032      -0.00001000       0.00000000      -0.08744000
Si       5.45000042       2.72500021       2.72500021       0.00000000       0.00000000       0.03365000
Si       6.81250053       4.08750032       4.08750032      -0.00001000       0.00001000      -0.08744000
Si       5.45000042       0.00000000       5.45000042       0.00001000      -0.00001000       0.08683000
Si       6.81250053       1.36250011       6.81250053      -0.00002000       0.00000000      -0.03403000
Si       8.17500063       2.72500021       5.45000042       0.00000000       0.00001000       0.08681000
Si       9.53750074       4.08750032       6.81250053      -0.00001000       0.00001000      -0.03404000
Si       8.17500063       0.00000000       8.17500063      -0.00002000       0.00000000       0.07735000
Si       9.53750074       1.36250011       9.53750074      -0.00002000      -0.00001000      -0.03990000
Si       5.45000042       2.72500021       8.17500063       0.00003000      -0.00002000       0.07735000
Si       6.81250053       4.08750032       9.53750074       0.00002000       0.00000000      -0.03988000
Si       5.45000042       5.45000042       0.00000000      -0.00001000       0.00000000       0.04064000
Si       6.81250053       6.81250053       1.36250011       0.00000000      -0.00001000      -0.07701000
Si       8.17500063       8.17500063       0.00000000       0.00001000      -0.00002000       0.04062000
Si       9.53750074       9.53750074       1.36250011       0.00002000      -0.00001000      -0.07701000
Si       8.17500063       5.45000042       2.72500021       0.00001000       0.00000000       0.03365000
Si       9.53750074       6.81250053       4.08750032       0.00001000      -0.00001000      -0.08744000
Si       5.45000042       8.17500063       2.72500021      -0.00001000      -0.00002000       0.03366000
Si       6.81250053       9.53750074       4.08750032       0.00001000       0.00000000      -0.08744000
Si       5.45000042       5.45000042       5.45000042       0.00002000      -0.00001000       0.08680000
Si       6.81250053       6.81250053       6.81250053       0.00002000       0.00000000      -0.03406000
Si       8.17500063       8.17500063       5.45000042       0.00001000      -0.00001000       0.08682000
Si       9.53750074       9.53750074       6.81250053       0.00002000      -0.00001000      -0.03405000
Si       8.17500063       5.45000042       8.17500063       0.00001000       0.00001000       0.07735000
Si       9.53750074       6.81250053       9.53750074       0.00000000       0.00001000      -0.03993000
Si       5.45000042       8.17500063       8.17500063       0.00002000       0.00000000       0.07732000
Si       6.81250053       9.53750074       9.53750074       0.00001000       0.00001000      -0.04000000
Si       5.45000042      10.90000084       0.00000000      -0.00002000      -0.00002000       0.04062000
Si       6.81250053      12.26250095       1.36250011      -0.00001000      -0.00001000      -0.07700000
Si       8.17500063      13.62500105       0.00000000       0.00001000      -0.00001000       0.04057000
Si       9.53750074      14.98750116       1.36250011       0.00001000       0.00000000      -0.07700000
Si       8.17500063      10.90000084       2.72500021       0.00001000      -0.00002000       0.03367000
Si       9.53750074      12.26250095       4.08750032       0.00001000      -0.00002000      -0.08743000
Si       5.45000042      13.62500105       2.72500021      -0.00002000       0.00000000       0.03368000
Si       6.81250053      14.98750116       4.08750032      -0.00002000       0.00001000      -0.08742000
Si       5.45000042      10.90000084       5.45000042      -0.00001000       0.00000000       0.08683000
Si       6.81250053      12.26250095       6.81250053      -0.00001000       0.00001000      -0.03406000
Si       8.17500063      13.62500105       5.45000042      -0.00001000       0.00001000       0.08684000
Si       9.53750074      14.98750116       6.81250053      -0.00002000      -0.00001000      -0.03407000
Si       8.17500063      10.90000084       8.17500063       0.00000000       0.00000000       0.07733000
Si       9.53750074      12.26250095       9.53750074       0.00000000      -0.00001000      -0.04000000
Si       5.45000042      13.62500105       8.17500063       0.00000000       0.00001000       0.07735000
Si       6.81250053      14.98750116       9.53750074      -0.00001000      -0.00001000      -0.03996000
Si      10.90000084       0.00000000       0.00000000       0.00003000       0.00002000       0.04063000
Si      12.26250095       1.36250011       1.36250011       0.00002000       0.00001000      -0.07701000
Si      13.62500105       2.72500021       0.00000000       0.00002000       0.00002000       0.04071000
Si      14.98750116       4.08750032       1.36250011       0.00001000       0.00000000      -0.07702000
Si      13.62500105       0.00000000       2.72500021       0.00003000       0.00001000       0.03365000
Si      14.98750116       1.36250011       4.08750032       0.00000000      -0.00001000      -0.08748000
Si      10.90000084       2.72500021       2.72500021       0.00001000       0.00003000       0.03365000
Si      12.26250095       4.08750032       4.08750032       0.00000000       0.00000000      -0.08746000
Si      10.90000084       0.00000000       5.45000042       0.00000000       0.00002000       0.08681000
Si      12.26250095       1.36250011       6.81250053      -0.00002000      -0.00001000      -0.03409000
Si      13.62500105       2.72500021       5.45000042       0.00000000       0.00002000       0.08678000
Si      14.98750116       4.08750032       6.81250053      -0.00001000       0.00001000      -0.03410000
Si      13.62500105       0.00000000       8.17500063       0.00000000      -0.00002000       0.07732000
Si      14.98750116       1.36250011       9.53750074       0.00000000      -0.00003000      -0.03988000
Si      10.90000084       2.72500021       8.17500063      -0.00002000       0.00002000       0.07733000
Si      12.26250095       4.08750032       9.53750074      -0.00003000       0.00003000      -0.03988000
Si      10.90000084       5.45000042       0.00000000       0.00003000       0.00001000       0.04066000
Si      12.26250095       6.81250053       1.36250011       0.00001000      -0.00001000      -0.07702000
Si      13.62500105       8.17500063       0.00000000       0.00002000      -0.00001000       0.04070000
Si      14.98750116       9.53750074       1.36250011       0.00000000       0.00000000      -0.07702000
Si      13.62500105       5.45000042       2.72500021       0.00000000       0.00002000       0.03365000
Si      14.98750116       6.81250053       4.08750032       0.00000000       0.00000000      -0.08747000
Si      10.90000084       8.17500063       2.72500021       0.00001000       0.00000000       0.03365000
Si      12.26250095       9.53750074       4.08750032       0.00001000      -0.00001000      -0.08744000
Si      10.90000084       5.45000042       5.45000042      -0.00001000       0.00003000       0.08681000
Si      12.26250095       6.81250053       6.81250053      -0.00001000       0.00001000      -0.03404000
Si      13.62500105       8.17500063       5.45000042      -0.00002000       0.00002000       0.08681000
Si      14.98750116       9.53750074       6.81250053      -0.00001000       0.00001000      -0.03404000
Si      13.62500105       5.45000042       8.17500063      -0.00003000       0.00004000       0.07733000
Si      14.98750116       6.81250053       9.53750074      -0.00003000       0.00004000      -0.03993000
Si      10.90000084       8.17500063       8.17500063       0.00000000       0.00000000       0.07735000
Si      12.26250095       9.53750074       9.53750074       0.00000000       0.00000000      -0.03995000
Si      10.90000084      10.90000084       0.00000000       0.00003000      -0.00002000       0.04064000
Si      12.26250095      12.26250095       1.36250011       0.00002000      -0.00001000      -0.07701000
Si      13.62500105      13.62500105       0.00000000       0.00002000      -0.00001000       0.04066000
Si      14.98750116      14.98750116       1.36250011       0.00001000       0.00000000      -0.07701000
Si      13.62500105      10.90000084       2.72500021       0.00001000      -0.00001000       0.03365000
Si      14.98750116      12.26250095       4.08750032       0.00000000      -0.00001000      -0.08745000
Si      10.90000084      13.62500105       2.72500021       0.00003000       0.00000000       0.03367000
Si      12.26250095      14.98750116       4.08750032       0.00000000      -0.00002000      -0.08745000
Si      10.90000084      10.90000084       5.45000042       0.00001000      -0.00001000       0.08682000
Si      12.26250095      12.26250095       6.81250053       0.00001000      -0.00003000      -0.03406000
Si      13.62500105      13.62500105       5.45000042       0.00002000      -0.00002000       0.08681000
Si      14.98750116      14.98750116       6.81250053       0.00000000      -0.00004000      -0.03407000
Si      13.62500105      10.90000084       8.17500063       0.00000000      -0.00001000       0.07735000
Si      14.98750116      12.26250095       9.53750074       0.00000000      -0.00002000      -0.03995000
Si      10.90000084      13.62500105       8.17500063       0.00000000      -0.00001000       0.07733000
Si      12.26250095      14.98750116       9.53750074      -0.00001000      -0.00003000      -0.03996000
144
Lattice="16.35000126 0.0 0.0 0.0 16.35000126 0.0 0.0 0.0 20.90000161" Properties=species:S:1:pos:R:3:dft_force:R:3 config_type=surface_001 dft_energy=-23423.197422 cutoff_factor=1.2 cutoff=-1.0 nneightol=1.2 pbc="T T T"
Si       0.08312475      -0.03074700       0.01099460      -0.06881000      -0.40454000       0.22669000
Si       1.33631496       1.44666288       1.35099502       0.31352000       0.15152000      -0.30633000
Si       2.86338723       2.80006745       0.03172999      -0.82933000      -0.28453000       0.12454000
Si       4.08722048       4.26106296       1.34583060      -0.41576000       0.20171000       0.25868000
Si       2.73342996       0.11601718       2.69921658       0.05260000      -0.35977000       0.19054000
Si       4.12101867       1.43209526       4.11277722      -0.13799000      -1.27875000      -0.10561000
Si      -0.05177981       2.70234183       2.75830864      -0.96286000      -0.11836000       0.08928000
Si       1.26250957       4.02012157       4.16859993       0.88546000       0.05204000      -0.47309000
Si       0.00964675      -0.13900784       5.62291792       0.46534000       0.83400000      -0.74963000
Si       1.35776758       1.24593881       6.94346088       0.89467000      -0.10073000      -0.72750000
Si       2.72106929       2.61570312       5.44720261      -0.40220000       0.72576000       0.97650000
Si       4.15561788       4.06299088       6.82753667      -0.49347000       0.26297000      -0.68149000
Si       2.79659453      -0.05303154       8.31492290       0.77655000       0.42413000      -0.53212000
Si       3.80472277       1.81795230       9.47635138      -0.98562000       0.44642000      -0.58346000
Si       0.15024471       2.58672435       8.28452672      -1.27356000       0.02659000       0.26831000
Si       1.29061105       3.93442337       9.72837870       1.40762000       0.31863000       0.21988000
Si       0.08992776       5.22132648      -0.23766211       0.07441000      -0.12448000       0.60078000
Si       1.14534311       6.75162177       1.27503252      -0.15694000       0.20141000       0.31986000
Si       2.51921838       8.12383847      -0.04429576      -0.36048000       0.46169000      -0.30634000
Si       3.85666554       9.50177839       1.26822462       0.51918000      -0.01980000       0.03867000
Si       2.53594804       5.51532700       2.72372737       0.51735000      -0.47329000       0.21358000
Si       4.26942698       6.67271143       3.97097799      -0.91770000       0.66581000       0.40001000
Si      -0.09040523       8.26518289       2.70000348      -0.05358000      -0.39869000      -0.29054000
Si       1.29456208       9.63833644       4.08815232       0.17532000      -0.62306000      -0.14022000
Si       0.11495716       5.44947508       5.57488839      -0.91872000       0.25337000       0.04353000
Si       1.57819849       6.88174826       6.77870204      -0.60415000      -0.13488000       0.22253000
Si       2.85097968       8.19085011       5.27594305      -0.10556000      -0.08419000       0.07811000
Si       4.06888030       9.53107217       6.80008519       1.20358000      -0.06053000      -0.31710000
Si       2.68043858       5.30752829       8.18901643      -0.68103000      -1.00419000      -0.27975000
Si       3.78413567       6.83899394       9.38856289       0.52720000       1.47318000       0.31577000
Si       0.01000536       8.09661456       8.15225056      -0.11989000       0.34173000       0.13485000
Si       1.53610638       9.30666075       9.57318416       0.32917000      -0.21355000      -0.52870000
Si       0.25787174      10.63652570       0.07657020       0.71743000      -0.40825000       0.63917000
Si       1.35731550      12.42687152       1.29251076      -0.21239000      -0.12576000      -0.21219000
Si       2.77342739      13.54711387      -0.25886661       0.30089000      -0.05252000       0.29295000
Si       3.94593637      14.98406140       1.28816350      -0.31661000       0.07630000      -0.22416000
Si       2.62082693      10.95366287       2.64113280      -0.00959000       0.05162000       0.19098000
Si       4.00350928      12.24036819       4.06666723       0.11833000       0.24684000       0.78052000
Si       0.09688105      13.72608357       2.83015677      -0.60481000      -0.49344000      -0.91338000
Si       1.36988972      15.10399314       4.12154444       0.71712000       0.03785000       0.18534000
Si      -0.08796853      10.89574079       5.54469644       0.65801000       0.53732000      -0.31045000
Si       1.42735952      12.29864382       6.83359930      -0.21529000      -1.50680000       0.19940000
Si       2.64106140      13.67770844       5.53012440       1.46867000       0.37758000      -0.87862000
Si       4.27724696      14.95581142       6.80521110      -1.54833000       0.47005000      -0.29723000
Si       2.79884121      10.84297192       8.18062656      -0.41128000       0.71692000       0.86943000
Si       4.02267591      12.47301311       9.65279928      -0.87600000       0.18288000      -0.51373000
Si      -0.00536459      13.60016433       8.02068867       0.09860000       0.55689000       1.23260000
Si       1.67521272      14.68036303       9.49614498      -0.05436000      -1.11573000      -0.25545000
Si       5.70872390      -0.30299606       0.16422489       0.42688000      -0.25431000       0.20437000
Si       6.76118840       1.47802520       1.32009187      -0.29554000      -0.74472000       0.64888000
Si       8.02174715       2.68463055      -0.12368533       0.42677000       0.68614000      -0.56489000
Si       9.35810007       3.98667531       1.32937956       0.30940000      -0.79088000       0.09910000
Si       8.24730648       0.02955573       2.67039622      -0.84760000      -0.28008000      -0.83999000
Si       9.50776116       1.29033602       4.08812473       0.18987000       1.09123000       0.40921000
Si       5.25631392       2.74200111       2.66308058       1.21592000       0.64614000      -0.08510000
Si       6.84690991       4.03802270       3.97474226      -0.59147000       0.50187000       0.01165000
Si       5.52791233      -0.06477307       5.34554450       0.04543000       0.33438000      -0.08191000
Si       6.68411746       1.33662550       6.87065730       0.52169000       0.64322000      -0.71309000
Si       8.10243905       2.75982127       5.42593663      -0.04704000      -1.18225000      -0.01342000
Si       9.47814377       4.16475072       6.63188959       0.42960000      -0.30963000       0.74863000
Si       8.23196094       0.14221272       8.10628291       0.19113000       0.03446000       0.11835000
Si       9.76129571       1.19156839       9.55439618       0.66927000      -0.05783000      -0.37862000
Si       5.55157306       2.89776004       8.25460870       0.01319000      -1.08356000       0.04075000
Si       6.71780247       4.18635191       9.76202391       0.12746000       0.39589000       0.34576000
Si       5.50367309       5.36650014      -0.13758922       0.23021000      -0.29252000      -0.38191000
Si       6.60882664       6.75292609       1.34838709       0.62070000       0.09793000       0.25642000
Si       8.42252255       7.80132256       0.33610185       0.91688000      -0.51722000       0.10312000
Si       9.57086104       9.56581951       1.46318187      -0.42354000      -0.35205000      -0.33234000
Si       8.29510692       5.46410428       2.71247848      -0.94363000       0.60782000       0.02006000
Si       9.57758269       6.82944720       4.15853920      -0.18238000      -0.05547000      -0.70566000
Si       5.35343574       8.27220651       2.60976851       0.21439000       0.12419000       0.54814000
Si       6.72099128       9.62845928       4.09037275       0.17321000      -0.44535000      -0.22927000
Si       5.66216430       5.49038715       5.50984336      -0.35031000      -0.55731000      -0.12683000
Si       7.04421675       6.83741696       6.98895110      -0.22772000       0.20450000      -0.15988000
Si       8.18766705       8.23569031       5.37162449      -0.45130000      -0.02952000       0.57681000
Si       9.56112069       9.67212454       6.60835468      -0.56409000      -1.11400000       0.79116000
Si       8.25000272       5.22583055       8.32808528      -0.06359000       0.66847000       0.04040000
Si       9.13618835       7.20298975       9.41227118      -0.90259000       0.49082000      -0.75591000
Si       5.46659074       8.11964310       8.26367184      -0.58560000      -0.05742000      -0.48559000
Si       7.02706292       9.37595379       9.45237680       0.80607000      -0.80320000       0.14359000
Si       5.24487226      11.03732697       0.06528814      -0.57828000       0.59839000       0.28312000
Si       6.80722761      12.27512451       1.37884353       0.07719000       0.23282000      -0.66131000
Si       8.36533626      13.47045718      -0.11954041      -0.06803000      -0.23226000       0.57901000
Si       9.59220659      15.00677322       1.30301853      -0.69252000      -0.05942000      -0.41728000
Si       8.15261023      10.91584155       2.71936532      -0.05038000       0.18484000       0.49814000
Si       9.59486384      12.31396778       4.02447564      -0.07378000      -0.70918000       0.11250000
Si       5.28131288      13.61882374       2.66196801       0.63494000      -0.01460000      -0.11315000
Si       6.86765518      14.91852400       3.87264395      -0.51339000       0.45318000       0.42895000
Si       5.57325106      11.06771459       5.57003677      -1.05504000      -0.42998000      -0.11974000
Si       6.91614475      12.40762424       6.99118626       0.19262000       0.19687000      -0.67220000
Si       8.25172393      13.70965822       5.29146824      -0.56729000      -0.55618000       1.26184000
Si       9.52066438      14.95091211       6.84097519      -0.44220000       0.25977000      -0.26044000
Si       8.30486850      10.85856000       8.13825163      -0.42873000       0.65768000       0.11929000
Si       9.59968481      12.18641773       9.62048605       0.32335000       0.23322000      -0.13044000
Si       5.49772325      13.80580465       8.31390433       1.05780000      -0.43536000       0.79248000
Si       7.21649560      15.07809677       9.63810249      -0.46625000      -1.21901000      -0.27694000
Si      10.89239179      -0.03994175      -0.10345803       0.57818000       0.30846000       0.11804000
Si      12.30120017       1.31275032       1.33580192      -0.49622000      -0.56682000       0.58682000
Si      13.43802126       2.77455435      -0.00829967       0.17596000       0.82293000       0.07332000
Si      14.92623045       4.13532117       1.29383870       0.21392000      -0.28703000       0.12305000
Si      13.67118275      -0.07205742       2.83159530      -1.35796000      -0.05586000      -0.23596000
Si      14.96606416       1.12889901       4.24806957       0.94642000       1.29709000      -0.48338000
Si      10.87528555       2.72953344       2.73755774      -0.03840000      -0.33312000      -0.36148000
Si      12.31544595       3.99581866       4.12248783       0.06086000       0.02917000      -0.06960000
Si      10.81490582      -0.06908706       5.45582874       1.11644000       0.13832000       0.30769000
Si      12.32423445       1.25065075       6.91893853      -0.74869000       0.57854000      -0.56703000
Si      13.73326030       2.62217416       5.51833003      -0.49399000       0.48432000       0.44130000
Si      15.09429425       3.98363360       6.96794058      -0.45982000       0.52914000      -0.15590000
Si      13.73928579      -0.11003160       8.14735232       0.13140000      -0.35097000      -0.09422000
Si      14.93628811       1.23409112       9.57729849       0.29969000       0.98043000       0.05883000
Si      10.79493854       2.79334667       8.08338260       0.18435000      -0.32549000       0.13783000
Si      12.28548459       4.09480708       9.36020670       0.20991000      -0.78531000      -0.02972000
Si      10.81292291       5.33114863       0.17078710       0.15799000       0.51591000      -0.23985000
Si      12.09129018       6.91553519       1.31425889       1.47583000      -0.60706000      -0.46239000
Si      13.55380506       8.12677686      -0.31200705      -0.12684000      -0.23503000       0.62593000
Si      14.82995779       9.54824708       1.17181449      -0.18280000      -0.13303000       0.52702000
Si      13.54294220       5.46783726       2.74663715      -0.06395000      -0.02728000      -0.73624000
Si      14.95696371       6.76065197       4.09568040       0.84809000      -0.18363000      -0.16167000
Si      10.88675427       8.15578531       2.76426298      -0.10535000       0.73714000       0.51380000
Si      12.29847397       9.61986911       4.01360797      -1.10882000      -0.98257000       1.09872000
Si      10.95405627       5.44998349       5.38560426       0.08391000      -0.21878000       0.36146000
Si      12.11240205       6.98276530       6.71969096       0.08886000      -0.94571000       1.01814000
Si      13.51875145       8.06237391       5.31339561       0.52717000       1.41019000       0.46451000
Si      14.89358918       9.48727438       6.75764694      -0.26709000      -0.37779000       0.74557000
Si      13.57118727       5.61105876       8.19808411       0.26570000      -0.13742000      -0.65991000
Si      14.60451954       7.20536291       9.57106868      -0.04946000       0.60584000      -0.52595000
Si      10.79539535       8.32502817       8.13850639       0.15228000      -0.06230000      -0.09898000
Si      12.14423546       9.62748519       9.60399044       0.21903000       0.09053000      -0.02864000
Si      10.80658658      11.12439696       0.29377671      -0.27668000       0.72013000      -0.31602000
Si      12.51186201      12.23779604       1.47515035      -0.69123000       1.07186000      -0.89058000
Si      13.65123824      13.80753835      -0.01040865      -0.97238000      -0.36406000      -0.00402000
Si      14.96714738      15.00553224       1.44434626       1.08460000       0.00637000      -0.14698000
Si      13.68482845      10.88513882       2.85026768       1.30464000      -0.08398000      -1.24603000
Si      15.03666930      12.30398798       4.05548142       0.09499000      -0.04488000       0.71479000
Si      10.87257781      13.65320206       2.63736214       0.69853000      -0.49756000      -0.14407000
Si      12.22942361      14.82856343       4.13532315      -0.48235000       1.37057000      -0.63312000
Si      10.95762232      10.98075117       5.49262367       0.39386000       0.27398000      -1.50114000