52
Lattice="11.102612 2e-05 -7.5e-05 5.551308 9.615112 0.001296 -0.000259 0.001199 16.355366" Properties=species:S:1:pos:R:3:map_shift:I:3:n_neighb:I:1:frac_pos:R:3:force_ewald:R:3:force_locpot:R:3:force_nlpot:R:3:dft_force:R:3:gap_force:R:3 Minim_Hydrostatic_Strain=F Minim_Lattice_Fix="0.0 0.0 0.0 0.0 0.0 0.0 0.0 0.0 0.0" iprint=2 task=SinglePoint calculate_stress=T data_distribution=GVECTOR opt_strategy=memory xc_functional=PW91 cut_off_energy="250.0000000 eV" fine_grid_scale=4.0 finite_basis_corr=automatic spin_polarized=F nextra_bands=270 elec_energy_tol="0.0000001 ev" max_scf_cycles=250 fix_occupancy=F smearing_width="0.0500000 eV" num_dump_cycles=0 mixing_scheme=pulay mix_history_length=20 popn_calculate=F kpoints_mp_grid="4 4 1" castep_file_name=fromhector/si111_3x3_gapopt.xyz0/eval.castep castep_run_time=1848.18 config_type=surface_111_3x3_das dft_energy=-8464.047547 gap_energy=-8465.15679939 gap_virial="0.00453111 0.00011291 0.00021425 0.00011291 0.00785321 -0.00093678 0.00021425 -0.00093678 0.00293268" cutoff=5.5 nneightol=1.2 pbc="T T T"
Si      13.87791487       8.01129717       7.84362786       -1       -1        0       11       0.83341100       0.83313700       0.47951300       0.00047000      -0.03837000     259.48416000      -0.00624000       0.06335000    -257.96589000       0.02284000      -0.00298000      -0.90081000       0.00000000       0.00000000       0.57345000       0.00006145      -0.00001958      -0.00008375
Si       2.77530139       1.60129316       7.85174390        0        0        0       11       0.16674000       0.16647900       0.48005900      -0.00023000      -0.03389000     260.31485000      -0.00600000       0.05982000    -258.32961000      -0.06815000       0.11151000      -1.09721000       0.00000000       0.00000000       0.84401000      -0.00000087      -0.00007782      -0.00002552
Si       8.32662725       0.48414682       6.58275125       -1        0        0       19       0.72482900       0.05030100       0.40248200       0.00294000      75.09459000     210.74561000      -0.00217000     -76.76489000    -211.27949000      -0.03750000       1.19691000       0.73516000      -0.00000000      -0.15757000       0.06800000      -0.00005854       0.00002629      -0.00010337
Si       6.14740370       1.03880369       5.71957397        0        0        0       25       0.49970100       0.10799400       0.34970000      22.84674000      38.87411000     173.89750000     -23.15976000     -39.56472000    -175.32560000       0.54619000       1.03315000       1.38401000       0.22406000       0.35494000       0.06032000      -0.00001390       0.00000488       0.00004322
Si      12.06991310       6.96760722       6.58352701       -1       -1        0       19       0.72483300       0.72460000       0.40247600     -65.05670000     -37.59389000     210.72521000      66.50411000      38.43325000    -211.27282000      -1.34075000      -0.70527000       0.63865000       0.13646000       0.07879000       0.06800000      -0.00006783       0.00004853      -0.00005152
Si      10.50001222       8.57771494       5.72059013        0       -1        0       25       0.49970100       0.89206300       0.34970000     -22.26430000     -39.25982000     173.88704000      22.70876000      39.88218000    -175.31617000      -0.59411000      -0.99485000       1.41395000      -0.19536000      -0.37151000       0.06032000       0.00007025      -0.00002500       0.00000218
Si       4.57085257       2.63808730       6.59591431        0        0        0       21       0.27454200       0.27431800       0.40326700      65.79789000      37.96043000     210.53265000     -67.38881000     -38.86863000    -211.24218000       1.65011000       0.86751000       0.70186000       0.03137000       0.01811000      -0.05104000       0.00008740       0.00004116      -0.00002540
Si       2.77530046       1.60158872       5.45672959        0        0        0       23       0.16671200       0.16652800       0.33362300      -0.00119000      -0.01525000     115.97225000      -0.00295000       0.01902000    -115.25545000      -0.06608000       0.09443000      -1.52655000       0.00000000      -0.00000000      -0.85376000       0.00000340       0.00003902       0.00010262
Si       8.32661775       9.14323940       6.59680748        0       -1        0       21       0.27454200       0.95087300       0.40326800       0.00148000     -76.00579000     210.51790000      -0.00221000      77.84273000    -211.24422000       0.04659000      -1.49063000       0.66383000       0.00000000      -0.03622000      -0.05104000       0.00001141      -0.00005434       0.00009540
Si       6.15322304       8.57771673       5.72061949        0       -1        0       25       0.10819000       0.89206400       0.34970000      22.26470000     -39.25747000     173.88535000     -22.70911000      39.88694000    -175.31628000       0.58309000      -1.01878000       1.55323000       0.19536000      -0.37151000       0.06032000       0.00000798      -0.00003808       0.00000277
Si       3.97402378       4.80322758       5.72002896        0        0        0       25       0.10819100       0.49950600       0.34969500      45.10820000       0.31171000     173.88623000     -45.87239000      -0.25823000    -175.31470000       1.20294000      -0.03834000       1.67880000       0.41942000       0.01657000       0.06032000      -0.00009582      -0.00000289      -0.00006865
Si       4.58335521       6.96761297       6.58362665        0       -1        0       19       0.05052600       0.72460200       0.40247900      65.06018000     -37.59190000     210.72707000     -66.51090000      38.43447000    -211.27863000       1.59962000      -0.90484000       0.59530000      -0.13646000       0.07879000       0.06800000       0.00004457       0.00000810       0.00001112
Si      12.08235802       2.63812006       6.59583086       -1        0        0       21       0.95109400       0.27432000       0.40326500     -65.79749000      37.96129000     210.53129000      67.38379000     -38.86809000    -211.23781000      -1.96228000       1.10370000       0.75563000      -0.03137000       0.01811000      -0.05104000      -0.00003458       0.00004690      -0.00005019
Si      10.50581176       1.03883077       5.71947911       -1        0        0       25       0.89225700       0.10799600       0.34969600     -22.84372000      38.87604000     173.89118000      23.15954000     -39.56032000    -175.32059000      -0.50843000       1.06428000       1.50623000      -0.22406000       0.35494000       0.06032000      -0.00002088      -0.00002464      -0.00010203
Si      13.87795288       8.01169811       5.44323265       -1       -1        0       23       0.83338100       0.83319700       0.33274800       0.00140000      -0.01638000     118.19593000      -0.00467000       0.01802000    -117.92308000       0.08258000      -0.15404000      -0.67805000      -0.00000000      -0.00000000      -0.44922000      -0.00003873      -0.00000971      -0.00003501
Si      12.67919881       4.80323364       5.71985567       -1        0        0       25       0.89225700       0.49950500       0.34968800     -45.10929000       0.31126000     173.87810000      45.86325000      -0.25831000    -175.30738000      -1.18918000      -0.10731000       1.66512000      -0.41942000       0.01657000       0.06032000       0.00007003       0.00000735       0.00014139
Si       6.45558788       1.58074379       3.40726001        0        0        0       31       0.49926500       0.16437500       0.20831600      15.32476000      27.41172000      58.36592000     -15.58019000     -27.79305000     -60.72376000       0.19036000       0.53224000       2.18837000       0.06504000       0.05233000      -0.22571000       0.00001121       0.00007658      -0.00007723
Si       4.67694850       0.50407344       2.40053171        0        0        0       33       0.39504800       0.05240600       0.14677100       3.00008000      -1.72869000     -26.26030000      -2.94097000       1.67930000      27.54245000       0.11165000      -0.22092000      -0.77670000       0.00204000      -0.00118000       0.29758000      -0.00001919      -0.00004355       0.00001101
Si      10.18510093       8.04029141       3.40813068        0       -1        0       31       0.49927200       0.83618700       0.20831600     -16.08251000     -26.99530000      58.35554000      16.28588000      27.40434000     -60.71864000      -0.37430000      -0.30522000       2.15246000      -0.01280000      -0.08249000      -0.22571000      -0.00002859       0.00002183      -0.00005143
Si       8.32667072       6.94000542       2.52154616        0       -1        0       29       0.38909700       0.72176100       0.15411700      -0.00350000     -17.32556000       5.00839000       0.00059000      16.14027000      -3.39512000       0.14066000       1.01135000      -1.27943000       0.00000000      -0.08353000       0.45629000      -0.00007562       0.00010531       0.00001102
Si       8.32655609       4.80692258       3.42151509       -1        0        0       33       0.50001500       0.49990700       0.20916100       0.00357000      -0.01284000     114.74627000      -0.00068000       0.01727000    -116.41528000      -0.19073000       0.26588000       1.29325000       0.00000000       0.00000000      -0.41977000       0.00003551      -0.00001795       0.00006349
Si       6.47936195       3.74051922       2.52116398        0        0        0       29       0.38909000       0.38900500       0.15412000      15.00319000       8.66717000       5.02155000     -13.98429000      -8.08602000      -3.40170000      -0.78876000      -0.79531000      -1.09171000       0.07234000       0.04177000       0.45629000       0.00000109      -0.00015244      -0.00002850
Si       2.77531530       1.60187878       3.11781418        0        0        0       32       0.16668600       0.16657600       0.19061700      -0.00561000      -0.00055000      18.43493000      -0.00120000       0.00576000     -20.32847000      -0.17267000       0.24312000       1.54493000       0.00000000       0.00000000      -0.39263000      -0.00004478      -0.00003515      -0.00007662
Si       0.87368214       0.50404736       2.40052469        0        0        0       33       0.05249300       0.05240400       0.14676900      -3.00661000      -1.72566000     -26.26881000       2.94164000       1.68044000      27.54463000       0.19941000      -0.20064000      -0.93682000      -0.00204000      -0.00118000       0.29758000       0.00013494      -0.00004824       0.00004034
Si       6.46822955       8.04027510       3.40817214        0       -1        0       31       0.16449800       0.83618600       0.20831700      16.08360000     -26.99193000      58.35389000     -16.28914000      27.40609000     -60.72284000       0.16657000      -0.32888000       2.13100000       0.01280000      -0.08249000      -0.22571000       0.00005049       0.00003807      -0.00007692
Si       4.68193432       6.91136858       2.43812174        0       -1        0       31       0.06230800       0.71878400       0.14901500      14.76195000      -8.52200000     -18.15260000     -15.26698000       8.79843000      19.57238000       0.64045000      -0.52093000      -0.86669000      -0.01523000       0.00879000       0.27001000       0.00000447       0.00007796      -0.00007014
Si       4.59717784       4.79970351       3.40762086        0        0        0       31       0.16448900       0.49915700       0.20831000      31.40389000      -0.44086000      58.35067000     -31.86649000       0.41245000     -60.71688000       0.43782000       0.19835000       2.17520000       0.07784000       0.03016000      -0.22571000       0.00003830      -0.00006163       0.00014170
Si       2.77534931       3.79778089       2.40096865        0        0        0       33       0.05249500       0.39496200       0.14676900      -0.01000000       3.47497000     -26.26554000      -0.00101000      -3.41227000      27.54979000       0.13793000      -0.34516000      -1.10390000       0.00000000       0.00235000       0.29758000      -0.00007740      -0.00001835      -0.00005889
Si      10.19759002       1.58071206       3.40712024       -1        0        0       31       0.83630500       0.16437100       0.20830900     -15.31735000      27.40925000      58.35162000      15.57735000     -27.78953000     -60.71384000      -0.47260000       0.55379000       2.22081000      -0.06504000       0.05233000      -0.22571000      -0.00008924      -0.00005074       0.00006763
Si       8.32653749       0.59849339       2.43727066       -1        0        0       31       0.71885300       0.06222500       0.14901800       0.00758000      17.04862000     -18.13785000       0.00140000     -17.64436000      19.57124000       0.13459000       0.31829000      -1.29851000       0.00000000      -0.01758000       0.27001000       0.00004444       0.00002773       0.00005404
Si      13.87795061       8.01199987       3.13275922       -1       -1        0       32       0.83335300       0.83324600       0.19148100       0.00349000      -0.00904000      17.25556000      -0.00167000       0.00499000     -18.90575000      -0.18119000       0.24170000       1.08365000       0.00000000       0.00000000      -0.61055000       0.00000471       0.00000618       0.00000213
Si      11.97137644       6.91138171       2.43803978       -1       -1        0       31       0.71886000       0.71878400       0.14901300     -14.76272000      -8.53031000     -18.15517000      15.26563000       8.79730000      19.57598000      -0.35456000      -0.49430000      -1.16670000       0.01523000       0.00879000       0.27001000      -0.00005065      -0.00001188       0.00000379
Si      12.05601806       4.79966887       3.40743963       -1        0        0       31       0.83630100       0.49915200       0.20830200     -31.40605000      -0.44675000      58.33426000      31.86026000       0.41310000     -60.70305000      -0.68909000       0.28793000       2.22910000      -0.07784000       0.03016000      -0.22571000       0.00001416      -0.00002282      -0.00007100
Si      10.17372279       3.74050664       2.52112266       -1        0        0       29       0.72183800       0.38900300       0.15411900     -14.98981000       8.66508000       5.01737000      13.98604000      -8.08553000      -3.39950000       0.94927000      -0.70508000      -0.97894000      -0.07234000       0.04177000       0.45629000       0.00000901       0.00001194      -0.00006229
Si       4.62543583       0.53378696       0.07995510        0        0        0       25       0.38885100       0.05551400       0.00488600       0.76313000      -0.41063000    -159.34856000      -0.84313000       0.46160000     157.87289000      -0.19307000       0.09327000       0.90165000      -0.04251000       0.02455000      -0.63866000       0.07748718      -0.03814620      -0.34017904
Si       8.32668642       9.08234211      15.58055615        0       -1       -1       21       0.27776200       0.94447100       0.95255300      -0.02739000      -3.27464000    -228.58635000       0.00167000       3.01768000     229.83619000       0.20824000      -0.04114000      -1.12062000      -0.00000000       0.08795000       0.16224000      -0.00380371       0.01057218      -0.00699761
Si       8.32693142       6.94438405       0.08081917        0       -1        0       25       0.38888000       0.72223500       0.00488600      -0.03334000      -4.97471000    -148.19500000      -0.00069000       4.77507000     145.87870000      -0.11061000       0.14175000       2.27308000      -0.00000000      -0.12905000       0.01662000      -0.00727735       0.01527867       0.38573913
Si       6.47560832       5.87663493      15.58012406        0       -1       -1       21       0.27773900       0.61106800       0.95255300       3.19061000      -1.77206000    -225.41494000      -3.40566000       1.93198000     227.09678000       0.56481000      -0.51907000      -0.86279000       0.14840000      -0.08568000       0.29229000       0.00968761       0.00213485      -0.03732167
Si       6.47584777       3.73866725       0.08038708        0        0        0       25       0.38885700       0.38883100       0.00488600       4.33274000       2.52711000    -148.17241000      -4.15589000      -2.42226000     145.87790000      -0.09732000       0.04470000       2.35957000       0.11176000       0.06452000       0.01662000      -0.01208637      -0.00845584       0.38868759
Si       4.62550170       2.67187964      15.57969210        0        0       -1       21       0.27775400       0.27776400       0.95255300       2.83896000       1.66294000    -228.57909000      -2.64471000      -1.56425000     229.83289000      -0.07374000      -0.62166000      -0.90512000      -0.07617000      -0.04398000       0.16224000      -0.01288282      -0.01078871      -0.00588500
Si       0.92522391       0.53378030       0.07998010        0        0        0       25       0.05557700       0.05551400       0.00488600      -0.76756000      -0.41658000    -159.36168000       0.84450000       0.46186000     157.87300000      -0.17218000       0.04699000       0.88846000       0.04251000       0.02455000      -0.63866000      -0.07442057      -0.04051789      -0.34207227
Si       4.62576469       6.94437738       0.08084417        0       -1        0       25       0.05552000       0.72223500       0.00488600       3.49350000      -1.99343000    -156.77293000      -3.73305000       2.12459000     155.05568000       0.00195000      -0.02663000       1.54950000      -0.04787000       0.02764000      -0.29307000       0.15384532      -0.09240812      -0.04563043
Si       2.77563586       3.73866058       0.08041207        0        0        0       25       0.05558300       0.38883100       0.00488600      -0.02053000       0.89605000    -159.34674000      -0.00433000      -1.00426000     157.87438000      -0.16863000       0.23320000       0.86267000      -0.00000000      -0.04909000      -0.63866000      -0.00196121       0.08333485      -0.33991901
Si      15.72776530       9.08235544      15.58050616       -1       -1       -1       21       0.94436900       0.94447100       0.95255300       0.47964000       0.29907000    -229.50874000      -0.29116000      -0.20961000     230.84613000       0.05188000      -0.57709000      -1.12676000      -0.08575000      -0.04951000       0.18667000      -0.02323561      -0.01564010       0.04200780
Si      13.87764202       5.87664826      15.58007406       -1       -1       -1       21       0.94443200       0.61106800       0.95255300      -0.00803000      -0.48979000    -229.50017000       0.00191000       0.30482000     230.84664000       0.26347000       0.03824000      -1.78751000       0.00000000       0.09901000       0.18667000       0.00167892       0.03466557       0.04347381
Si      12.02753540       2.67189297      15.57964210       -1        0       -1       21       0.94444700       0.27776400       0.95255300      -2.86594000       1.68763000    -228.55590000       2.64779000      -1.56397000     229.83403000       0.46452000      -0.50660000      -1.13728000       0.07617000      -0.04398000       0.16224000       0.00868420      -0.00673780      -0.00325434
Si       8.32626948       0.53379363       0.07993010       -1        0        0       25       0.72218100       0.05551400       0.00488600       0.02090000       4.06621000    -156.74543000       0.00436000      -4.33976000     155.05681000      -0.03256000       0.32951000       1.39633000      -0.00000000      -0.05528000      -0.29307000       0.00379643       0.18458117      -0.04131708
Si      12.02752008       9.08234878      15.58053115       -1       -1       -1       21       0.61109200       0.94447100       0.95255300      -0.48700000       0.27576000    -229.52206000       0.29487000      -0.20955000     230.84612000       0.41770000      -0.49175000      -0.40159000       0.08575000      -0.04951000       0.18667000       0.02044168      -0.01820828       0.04064401
Si      12.02776508       6.94439072       0.08079417       -1       -1        0       25       0.72221000       0.72223500       0.00488600      -3.51451000      -2.02232000    -156.78468000       3.73106000       2.12408000     155.05640000      -0.28016000      -0.06406000       1.44116000       0.04787000       0.02764000      -0.29307000      -0.16109352      -0.09460347      -0.04746018
Si      10.17644198       5.87664159      15.58009906       -1       -1       -1       21       0.61106900       0.61106800       0.95255300      -3.13182000      -1.79214000    -225.41860000       3.40923000       1.93191000     227.09686000      -0.07821000      -0.66311000      -1.51716000      -0.14840000      -0.08568000       0.29229000       0.00297255       0.00085855      -0.03794719
Si      10.17669253       3.73867392       0.08036208       -1        0        0       25       0.72218800       0.38883100       0.00488600      -4.28076000       2.51373000    -148.17867000       4.16233000      -2.42287000     145.87655000      -0.02359000       0.03435000       2.46219000      -0.11176000       0.06452000       0.01662000       0.02176577      -0.00939379       0.38784511
Si       8.32633536       2.67188630      15.57966710       -1        0       -1       21       0.61108400       0.27776400       0.95255300      -0.00165000       3.69378000    -225.43612000       0.00188000      -3.96928000     227.09913000       0.28769000       0.21794000      -1.63426000       0.00000000       0.17135000       0.29229000      -0.00358669       0.00360136      -0.04008904
