1
Lattice="20.0 0.0 0.0 0.0 20.0 0.0 0.0 0.0 20.0" Properties=species:S:1:pos:R:3:map_shift:I:3:n_neighb:I:1:gap_force:R:3:dft_force:R:3 config_type=isolated_atom gap_energy=-157.7272532 gap_virial="0.0 0.0 0.0 0.0 0.0 0.0 0.0 0.0 0.0" dft_energy=-158.54496821 cutoff=5.5 nneightol=1.2 pbc="T T T"
Si      10.00000000      10.00000000      10.00000000       -1       -1       -1        0       0.00000000       0.00000000       0.00000000       0.00000000       0.00000000       0.00000000
2
Lattice="3.935514 0.0 0.0 1.967074 3.256574 0.0 1.728375 1.085623 3.061917" Properties=species:S:1:pos:R:3:frac_pos:R:3:dft_force:R:3 config_type=dia task=SinglePoint cut_off_energy="250 eV" spin_polarized=F opt_strategy_bias=3 xc_functional=PW91 elec_energy_tol=1e-07 max_scf_cycles=250 fix_occupancy=F calculate_stress=T finite_basis_corr=automatic smearing_width=0.05 fine_grid_scale=4 mixing_scheme=pulay mix_history_length=20 num_dump_cycles=0 popn_calculate=F mix_charge_amp=0.05 kpoints_mp_grid="11 11 11" castep_file_name=md_sample_dia.xyz-00386/eval.castep castep_run_time=65.96 dft_energy=-326.237661 dft_virial="-0.88233585 0.26180002 1.03122757 0.26180002 1.6344984 -0.42361538 1.03122757 -0.42361538 2.17201527" in_file=md_sample_dia.xyz@386 cutoff_factor=1.2 cutoff=-1.0 nneightol=1.2 pbc="T T T"
Si       0.00000000       0.00000000       0.00000000       0.00000000       0.00000000       0.00000000      -0.09105000       0.77721000       0.54967000
Si       1.93079748       1.11474625       0.78824460       0.24935100       0.25648700       0.25743500       0.09105000      -0.77721000      -0.54967000
2
Lattice="3.867451 0.0 0.0 1.903427 3.240924 0.0 1.723933 1.067353 3.256666" Properties=species:S:1:pos:R:3:frac_pos:R:3:dft_force:R:3 config_type=dia task=SinglePoint cut_off_energy="250 eV" spin_polarized=F opt_strategy_bias=3 xc_functional=PW91 elec_energy_tol=1e-07 max_scf_cycles=250 fix_occupancy=F calculate_stress=T finite_basis_corr=automatic smearing_width=0.05 fine_grid_scale=4 mixing_scheme=pulay mix_history_length=20 num_dump_cycles=0 popn_calculate=F mix_charge_amp=0.05 kpoints_mp_grid="11 11 11" castep_file_name=md_sample_dia.xyz-00387/eval.castep castep_run_time=66.72 dft_energy=-326.236413 dft_virial="-0.17514188 0.11222387 0.83258303 0.11222387 2.06032164 -0.37838018 0.83258303 -0.37838018 -1.55166427" in_file=md_sample_dia.xyz@387 cutoff_factor=1.2 cutoff=-1.0 nneightol=1.2 pbc="T T T"
Si       0.00000000       0.00000000       0.00000000       0.00000000       0.00000000       0.00000000       0.32830000       0.85701000      -0.74716000
Si       1.93079670       1.11474656       0.78824344       0.26129900       0.26424700       0.24204000      -0.32830000      -0.85701000       0.74716000
2
Lattice="4.053009 0.0 0.0 1.935709 3.230548 0.0 1.857244 0.963028 3.032233" Properties=species:S:1:pos:R:3:frac_pos:R:3:dft_force:R:3 config_type=dia task=SinglePoint cut_off_energy="250 eV" spin_polarized=F opt_strategy_bias=3 xc_functional=PW91 elec_energy_tol=1e-07 max_scf_cycles=250 fix_occupancy=F calculate_stress=T finite_basis_corr=automatic smearing_width=0.05 fine_grid_scale=4 mixing_scheme=pulay mix_history_length=20 num_dump_cycles=0 popn_calculate=F mix_charge_amp=0.05 kpoints_mp_grid="11 11 11" castep_file_name=md_sample_dia.xyz-00388/eval.castep castep_run_time=66.07 dft_energy=-326.12843 dft_virial="-1.87014526 0.77128738 0.87612272 0.77128738 1.96171518 -0.41577308 0.87612272 -0.41577308 2.88399691" in_file=md_sample_dia.xyz@388 cutoff_factor=1.2 cutoff=-1.0 nneightol=1.2 pbc="T T T"
Si       0.00000000       0.00000000       0.00000000       0.00000000       0.00000000       0.00000000      -0.54204000       1.28048000       0.88643000
Si       1.93079559       1.11474490       0.78824413       0.22947300       0.26757100       0.25995500       0.54204000      -1.28048000      -0.88643000
2
Lattice="3.792927 0.0 0.0 1.827085 3.356905 0.0 1.678781 1.050134 3.268531" Properties=species:S:1:pos:R:3:frac_pos:R:3:dft_force:R:3 config_type=dia task=SinglePoint cut_off_energy="250 eV" spin_polarized=F opt_strategy_bias=3 xc_functional=PW91 elec_energy_tol=1e-07 max_scf_cycles=250 fix_occupancy=F calculate_stress=T finite_basis_corr=automatic smearing_width=0.05 fine_grid_scale=4 mixing_scheme=pulay mix_history_length=20 num_dump_cycles=0 popn_calculate=F mix_charge_amp=0.05 kpoints_mp_grid="11 11 11" castep_file_name=md_sample_dia.xyz-00390/eval.castep castep_run_time=65.23 dft_energy=-326.229346 dft_virial="0.76309107 -0.04145759 0.58695163 -0.04145759 -0.1415085 0.4994818 0.58695163 0.4994818 -1.81808663" in_file=md_sample_dia.xyz@390 cutoff_factor=1.2 cutoff=-1.0 nneightol=1.2 pbc="T T T"
Si       0.00000000       0.00000000       0.00000000       0.00000000       0.00000000       0.00000000       0.93530000      -0.15970000      -0.68241000
Si       1.93079552       1.11474502       0.78824547       0.27868900       0.25663300       0.24116200      -0.93530000       0.15970000       0.68241000
2
Lattice="4.071919 0.0 0.0 1.89175 3.328273 0.0 1.85538 1.188504 3.07242" Properties=species:S:1:pos:R:3:frac_pos:R:3:dft_force:R:3 config_type=dia task=SinglePoint cut_off_energy="250 eV" spin_polarized=F opt_strategy_bias=3 xc_functional=PW91 elec_energy_tol=1e-07 max_scf_cycles=250 fix_occupancy=F calculate_stress=T finite_basis_corr=automatic smearing_width=0.05 fine_grid_scale=4 mixing_scheme=pulay mix_history_length=20 num_dump_cycles=0 popn_calculate=F mix_charge_amp=0.05 kpoints_mp_grid="10 11 11" castep_file_name=md_sample_dia.xyz-00392/eval.castep castep_run_time=59.55 dft_energy=-326.210046 dft_virial="-2.23442344 1.01039192 0.80917407 1.01039192 -0.02366075 -0.54241597 0.80917407 -0.54241597 1.68668839" in_file=md_sample_dia.xyz@392 cutoff_factor=1.2 cutoff=-1.0 nneightol=1.2 pbc="T T T"
Si       0.00000000       0.00000000       0.00000000       0.00000000       0.00000000       0.00000000      -0.53524000       0.19697000       0.73710000
Si       1.93079676       1.11474537       0.78824471       0.24423200       0.24331800       0.25655500       0.53524000      -0.19697000      -0.73710000
2
Lattice="3.993785 0.0 0.0 1.899635 3.316998 0.0 1.935359 1.192485 3.157898" Properties=species:S:1:pos:R:3:frac_pos:R:3:dft_force:R:3 config_type=dia task=SinglePoint cut_off_energy="250 eV" spin_polarized=F opt_strategy_bias=3 xc_functional=PW91 elec_energy_tol=1e-07 max_scf_cycles=250 fix_occupancy=F calculate_stress=T finite_basis_corr=automatic smearing_width=0.05 fine_grid_scale=4 mixing_scheme=pulay mix_history_length=20 num_dump_cycles=0 popn_calculate=F mix_charge_amp=0.05 kpoints_mp_grid="11 11 11" castep_file_name=md_sample_dia.xyz-00393/eval.castep castep_run_time=70.55 dft_energy=-326.301008 dft_virial="-1.54861568 0.72006364 0.36266217 0.72006364 0.24470278 -0.60899057 0.36266217 -0.60899057 -0.19884924" in_file=md_sample_dia.xyz@393 cutoff_factor=1.2 cutoff=-1.0 nneightol=1.2 pbc="T T T"
Si       0.00000000       0.00000000       0.00000000       0.00000000       0.00000000       0.00000000      -0.47895000       0.21422000       0.03229000
Si       1.93079697       1.11474557       0.78824292       0.24532300       0.24633400       0.24961000       0.47895000      -0.21422000      -0.03229000
2
Lattice="3.854268 0.0 0.0 1.856715 3.324968 0.0 1.831564 1.110081 3.243055" Properties=species:S:1:pos:R:3:frac_pos:R:3:dft_force:R:3 config_type=dia task=SinglePoint cut_off_energy="250 eV" spin_polarized=F opt_strategy_bias=3 xc_functional=PW91 elec_energy_tol=1e-07 max_scf_cycles=250 fix_occupancy=F calculate_stress=T finite_basis_corr=automatic smearing_width=0.05 fine_grid_scale=4 mixing_scheme=pulay mix_history_length=20 num_dump_cycles=0 popn_calculate=F mix_charge_amp=0.05 kpoints_mp_grid="11 11 11" castep_file_name=md_sample_dia.xyz-00394/eval.castep castep_run_time=68.55 dft_energy=-326.312284 dft_virial="0.03107798 0.24645813 0.2878394 0.24645813 0.32750165 -0.05586244 0.2878394 -0.05586244 -1.54366652" in_file=md_sample_dia.xyz@394 cutoff_factor=1.2 cutoff=-1.0 nneightol=1.2 pbc="T T T"
Si       0.00000000       0.00000000       0.00000000       0.00000000       0.00000000       0.00000000       0.32581000       0.10406000      -0.51844000
Si       1.93079700       1.11474607       0.78824398       0.26303300       0.25411800       0.24305600      -0.32581000      -0.10406000       0.51844000
2
Lattice="3.73629 0.0 0.0 1.908786 3.300978 0.0 2.031438 1.107542 3.128481" Properties=species:S:1:pos:R:3:frac_pos:R:3:dft_force:R:3 config_type=dia task=SinglePoint cut_off_energy="250 eV" spin_polarized=F opt_strategy_bias=3 xc_functional=PW91 elec_energy_tol=1e-07 max_scf_cycles=250 fix_occupancy=F calculate_stress=T finite_basis_corr=automatic smearing_width=0.05 fine_grid_scale=4 mixing_scheme=pulay mix_history_length=20 num_dump_cycles=0 popn_calculate=F mix_charge_amp=0.05 kpoints_mp_grid="12 11 11" castep_file_name=md_sample_dia.xyz-00395/eval.castep castep_run_time=78.52 dft_energy=-326.289353 dft_virial="2.03449888 -0.60171041 -0.89138909 -0.60171041 1.19279855 0.15503222 -0.89138909 0.15503222 0.74017032" in_file=md_sample_dia.xyz@395 cutoff_factor=1.2 cutoff=-1.0 nneightol=1.2 pbc="T T T"
Si       0.00000000       0.00000000       0.00000000       0.00000000       0.00000000       0.00000000       0.33687000      -0.18264000      -0.26060000
Si       1.91066948       1.10312537       0.78002730       0.24783100       0.25052600       0.24933100      -0.33687000       0.18264000       0.26060000
2
Lattice="3.756837 0.0 0.0 2.101772 3.287271 0.0 2.048608 1.097006 3.119596" Properties=species:S:1:pos:R:3:frac_pos:R:3:dft_force:R:3 config_type=dia task=SinglePoint cut_off_energy="250 eV" spin_polarized=F opt_strategy_bias=3 xc_functional=PW91 elec_energy_tol=1e-07 max_scf_cycles=250 fix_occupancy=F calculate_stress=T finite_basis_corr=automatic smearing_width=0.05 fine_grid_scale=4 mixing_scheme=pulay mix_history_length=20 num_dump_cycles=0 popn_calculate=F mix_charge_amp=0.05 kpoints_mp_grid="12 11 11" castep_file_name=md_sample_dia.xyz-00396/eval.castep castep_run_time=78.39 dft_energy=-326.263811 dft_virial="1.614914 -1.14460072 -0.62644997 -1.14460072 1.40432316 0.09101533 -0.62644997 0.09101533 0.86512824" in_file=md_sample_dia.xyz@396 cutoff_factor=1.2 cutoff=-1.0 nneightol=1.2 pbc="T T T"
Si       0.00000000       0.00000000       0.00000000       0.00000000       0.00000000       0.00000000      -0.10866000      -0.07487000      -0.17671000
Si       1.91067141       1.10312598       0.78002690       0.23118100       0.25213300       0.25004100       0.10866000       0.07487000       0.17671000
2
Lattice="3.803132 0.0 0.0 2.171038 3.328501 0.0 1.977264 1.172741 3.289355" Properties=species:S:1:pos:R:3:frac_pos:R:3:dft_force:R:3 config_type=dia task=SinglePoint cut_off_energy="250 eV" spin_polarized=F opt_strategy_bias=3 xc_functional=PW91 elec_energy_tol=1e-07 max_scf_cycles=250 fix_occupancy=F calculate_stress=T finite_basis_corr=automatic smearing_width=0.05 fine_grid_scale=4 mixing_scheme=pulay mix_history_length=20 num_dump_cycles=0 popn_calculate=F mix_charge_amp=0.05 kpoints_mp_grid="11 11 11" castep_file_name=md_sample_dia.xyz-00397/eval.castep castep_run_time=68.84 dft_energy=-326.212372 dft_virial="0.74284828 -1.12696763 -0.04298553 -1.12696763 0.37268043 -0.10165028 -0.04298553 -0.10165028 -2.19890555" in_file=md_sample_dia.xyz@397 cutoff_factor=1.2 cutoff=-1.0 nneightol=1.2 pbc="T T T"
Si       0.00000000       0.00000000       0.00000000       0.00000000       0.00000000       0.00000000      -0.44516000      -0.36075000      -0.81369000
Si       1.91066952       1.10312584       0.78002778       0.23760900       0.24786700       0.23713700       0.44516000       0.36075000       0.81369000
2
Lattice="3.741986 0.0 0.0 1.811935 3.334769 0.0 1.891313 1.143828 3.042084" Properties=species:S:1:pos:R:3:frac_pos:R:3:dft_force:R:3 config_type=dia task=SinglePoint cut_off_energy="250 eV" spin_polarized=F opt_strategy_bias=3 xc_functional=PW91 elec_energy_tol=1e-07 max_scf_cycles=250 fix_occupancy=F calculate_stress=T finite_basis_corr=automatic smearing_width=0.05 fine_grid_scale=4 mixing_scheme=pulay mix_history_length=20 num_dump_cycles=0 popn_calculate=F mix_charge_amp=0.05 kpoints_mp_grid="11 11 11" castep_file_name=md_sample_dia.xyz-00398/eval.castep castep_run_time=64.24 dft_energy=-326.251954 dft_virial="1.96242545 -0.18776922 -0.42977769 -0.18776922 0.57997648 0.16908363 -0.42977769 0.16908363 2.77345612" in_file=md_sample_dia.xyz@398 cutoff_factor=1.2 cutoff=-1.0 nneightol=1.2 pbc="T T T"
Si       0.00000000       0.00000000       0.00000000       0.00000000       0.00000000       0.00000000       0.65275000      -0.43465000       0.56257000
Si       1.91067176       1.10312654       0.78002684       0.26341500       0.24284600       0.25641200      -0.65275000       0.43465000      -0.56257000
2
Lattice="3.946745 0.0 0.0 1.920837 3.237153 0.0 1.904347 1.255944 3.29121" Properties=species:S:1:pos:R:3:frac_pos:R:3:dft_force:R:3 config_type=dia task=SinglePoint cut_off_energy="250 eV" spin_polarized=F opt_strategy_bias=3 xc_functional=PW91 elec_energy_tol=1e-07 max_scf_cycles=250 fix_occupancy=F calculate_stress=T finite_basis_corr=automatic smearing_width=0.05 fine_grid_scale=4 mixing_scheme=pulay mix_history_length=20 num_dump_cycles=0 popn_calculate=F mix_charge_amp=0.05 kpoints_mp_grid="11 12 11" castep_file_name=md_sample_dia.xyz-00399/eval.castep castep_run_time=78.81 dft_energy=-326.198837 dft_virial="-0.92821686 0.61108647 0.45684915 0.61108647 1.86771735 -1.26559527 0.45684915 -1.26559527 -2.11027219" in_file=md_sample_dia.xyz@399 cutoff_factor=1.2 cutoff=-1.0 nneightol=1.2 pbc="T T T"
Si       0.00000000       0.00000000       0.00000000       0.00000000       0.00000000       0.00000000      -0.56669000       0.51337000      -0.87373000
Si       1.91067036       1.10312767       0.78002664       0.24865900       0.24881900       0.23700300       0.56669000      -0.51337000       0.87373000
2
Lattice="3.624122 0.0 0.0 2.14393 3.408219 0.0 1.976346 1.185698 3.054084" Properties=species:S:1:pos:R:3:frac_pos:R:3:dft_force:R:3 config_type=dia task=SinglePoint cut_off_energy="250 eV" spin_polarized=F opt_strategy_bias=3 xc_functional=PW91 elec_energy_tol=1e-07 max_scf_cycles=250 fix_occupancy=F calculate_stress=T finite_basis_corr=automatic smearing_width=0.05 fine_grid_scale=4 mixing_scheme=pulay mix_history_length=20 num_dump_cycles=0 popn_calculate=F mix_charge_amp=0.05 kpoints_mp_grid="12 11 11" castep_file_name=md_sample_dia.xyz-00400/eval.castep castep_run_time=75.64 dft_energy=-326.054673 dft_virial="3.99758972 -2.41468177 -1.14549429 -2.41468177 0.08078707 0.76855633 -1.14549429 0.76855633 2.51036044" in_file=md_sample_dia.xyz@400 cutoff_factor=1.2 cutoff=-1.0 nneightol=1.2 pbc="T T T"
Si       0.00000000       0.00000000       0.00000000       0.00000000       0.00000000       0.00000000       0.98585000      -1.33899000       0.18836000
Si       1.91067377       1.10312733       0.78002832       0.24902100       0.23481300       0.25540500      -0.98585000       1.33899000      -0.18836000
2
Lattice="3.832877 0.0 0.0 1.918445 3.409752 0.0 2.155538 1.254499 3.09101" Properties=species:S:1:pos:R:3:frac_pos:R:3:dft_force:R:3 config_type=dia task=SinglePoint cut_off_energy="250 eV" spin_polarized=F opt_strategy_bias=3 xc_functional=PW91 elec_energy_tol=1e-07 max_scf_cycles=250 fix_occupancy=F calculate_stress=T finite_basis_corr=automatic smearing_width=0.05 fine_grid_scale=4 mixing_scheme=pulay mix_history_length=20 num_dump_cycles=0 popn_calculate=F mix_charge_amp=0.05 kpoints_mp_grid="11 11 11" castep_file_name=md_sample_dia.xyz-00401/eval.castep castep_run_time=68.21 dft_energy=-326.258639 dft_virial="0.36361248 -0.07563389 -0.75107734 -0.07563389 -1.01110915 -0.05264406 -0.75107734 -0.05264406 1.09698195" in_file=md_sample_dia.xyz@401 cutoff_factor=1.2 cutoff=-1.0 nneightol=1.2 pbc="T T T"
Si       0.00000000       0.00000000       0.00000000       0.00000000       0.00000000       0.00000000      -0.46521000      -0.71115000       0.26589000
Si       1.91067349       1.10312579       0.78002874       0.24111800       0.23067600       0.25235400       0.46521000       0.71115000      -0.26589000
2
Lattice="3.847175 0.0 0.0 2.127212 3.35246 0.0 2.066594 1.063888 3.231953" Properties=species:S:1:pos:R:3:frac_pos:R:3:dft_force:R:3 config_type=dia task=SinglePoint cut_off_energy="250 eV" spin_polarized=F opt_strategy_bias=3 xc_functional=PW91 elec_energy_tol=1e-07 max_scf_cycles=250 fix_occupancy=F calculate_stress=T finite_basis_corr=automatic smearing_width=0.05 fine_grid_scale=4 mixing_scheme=pulay mix_history_length=20 num_dump_cycles=0 popn_calculate=F mix_charge_amp=0.05 kpoints_mp_grid="11 11 11" castep_file_name=md_sample_dia.xyz-00403/eval.castep castep_run_time=67.21 dft_energy=-326.263087 dft_virial="0.13624893 -0.69364922 -0.27949561 -0.69364922 -0.17986428 0.36264217 -0.27949561 0.36264217 -1.47719662" in_file=md_sample_dia.xyz@403 cutoff_factor=1.2 cutoff=-1.0 nneightol=1.2 pbc="T T T"
Si       0.00000000       0.00000000       0.00000000       0.00000000       0.00000000       0.00000000      -0.75747000      -0.21145000      -0.54124000
Si       1.91067104       1.10312700       0.78002862       0.22740500       0.25245900       0.24134900       0.75747000       0.21145000       0.54124000
2
Lattice="3.759799 0.0 0.0 2.032661 3.346142 0.0 1.959705 1.095845 3.298715" Properties=species:S:1:pos:R:3:frac_pos:R:3:dft_force:R:3 config_type=dia task=SinglePoint cut_off_energy="250 eV" spin_polarized=F opt_strategy_bias=3 xc_functional=PW91 elec_energy_tol=1e-07 max_scf_cycles=250 fix_occupancy=F calculate_stress=T finite_basis_corr=automatic smearing_width=0.05 fine_grid_scale=4 mixing_scheme=pulay mix_history_length=20 num_dump_cycles=0 popn_calculate=F mix_charge_amp=0.05 kpoints_mp_grid="11 11 11" castep_file_name=md_sample_dia.xyz-00404/eval.castep castep_run_time=68.15 dft_energy=-326.236274 dft_virial="1.53645986 -0.90029864 -0.33690376 -0.90029864 0.17014601 0.34715223 -0.33690376 0.34715223 -2.21750653" in_file=md_sample_dia.xyz@404 cutoff_factor=1.2 cutoff=-1.0 nneightol=1.2 pbc="T T T"
Si       0.00000000       0.00000000       0.00000000       0.00000000       0.00000000       0.00000000       0.08226000      -0.39401000      -0.89724000
Si       1.91067100       1.10312529       0.78002734       0.24857000       0.25223000       0.23646400      -0.08226000       0.39401000       0.89724000
2
Lattice="3.821534 0.0 0.0 2.022814 3.226749 0.0 2.168477 1.374153 3.026268" Properties=species:S:1:pos:R:3:frac_pos:R:3:dft_force:R:3 config_type=dia task=SinglePoint cut_off_energy="250 eV" spin_polarized=F opt_strategy_bias=3 xc_functional=PW91 elec_energy_tol=1e-07 max_scf_cycles=250 fix_occupancy=F calculate_stress=T finite_basis_corr=automatic smearing_width=0.05 fine_grid_scale=4 mixing_scheme=pulay mix_history_length=20 num_dump_cycles=0 popn_calculate=F mix_charge_amp=0.05 kpoints_mp_grid="11 12 12" castep_file_name=md_sample_dia.xyz-00405/eval.castep castep_run_time=77.09 dft_energy=-326.113481 dft_virial="0.66549997 -0.3542496 -0.36952379 -0.3542496 2.26280137 -1.34290227 -0.36952379 -1.34290227 2.88497954" in_file=md_sample_dia.xyz@405 cutoff_factor=1.2 cutoff=-1.0 nneightol=1.2 pbc="T T T"
Si       0.00000000       0.00000000       0.00000000       0.00000000       0.00000000       0.00000000      -0.70071000       0.15997000       0.19690000
Si       1.89292191       1.09287899       0.77278174       0.22871600       0.22994600       0.25535800       0.70071000      -0.15997000      -0.19690000
2
Lattice="3.770449 0.0 0.0 1.749626 3.411298 0.0 2.025061 1.075152 3.168085" Properties=species:S:1:pos:R:3:frac_pos:R:3:dft_force:R:3 config_type=dia task=SinglePoint cut_off_energy="250 eV" spin_polarized=F opt_strategy_bias=3 xc_functional=PW91 elec_energy_tol=1e-07 max_scf_cycles=250 fix_occupancy=F calculate_stress=T finite_basis_corr=automatic smearing_width=0.05 fine_grid_scale=4 mixing_scheme=pulay mix_history_length=20 num_dump_cycles=0 popn_calculate=F mix_charge_amp=0.05 kpoints_mp_grid="11 11 11" castep_file_name=md_sample_dia.xyz-00406/eval.castep castep_run_time=66.3 dft_energy=-326.273146 dft_virial="1.48630653 0.44739488 -0.81537965 0.44739488 -0.83807327 0.7588801 -0.81537965 0.7588801 -0.38391862" in_file=md_sample_dia.xyz@406 cutoff_factor=1.2 cutoff=-1.0 nneightol=1.2 pbc="T T T"
Si       0.00000000       0.00000000       0.00000000       0.00000000       0.00000000       0.00000000       0.11323000      -0.75630000      -0.38063000
Si       1.89292321       1.09287896       0.77278147       0.25804300       0.24349100       0.24392700      -0.11323000       0.75630000       0.38063000
2
Lattice="3.795932 0.0 0.0 1.756331 3.372029 0.0 1.850759 0.903363 3.086017" Properties=species:S:1:pos:R:3:frac_pos:R:3:dft_force:R:3 config_type=dia task=SinglePoint cut_off_energy="250 eV" spin_polarized=F opt_strategy_bias=3 xc_functional=PW91 elec_energy_tol=1e-07 max_scf_cycles=250 fix_occupancy=F calculate_stress=T finite_basis_corr=automatic smearing_width=0.05 fine_grid_scale=4 mixing_scheme=pulay mix_history_length=20 num_dump_cycles=0 popn_calculate=F mix_charge_amp=0.05 kpoints_mp_grid="11 11 11" castep_file_name=md_sample_dia.xyz-00407/eval.castep castep_run_time=62.95 dft_energy=-326.274482 dft_virial="1.21333118 0.59629344 0.04012697 0.59629344 -0.39984095 1.10903371 0.04012697 1.10903371 1.34852089" in_file=md_sample_dia.xyz@407 cutoff_factor=1.2 cutoff=-1.0 nneightol=1.2 pbc="T T T"
Si       0.00000000       0.00000000       0.00000000       0.00000000       0.00000000       0.00000000       0.21457000      -0.26763000       0.13497000
Si       1.89292097       1.09288015       0.77278186       0.25766000       0.25701600       0.25041400      -0.21457000       0.26763000      -0.13497000
2
Lattice="3.82268 0.0 0.0 1.881348 3.211393 0.0 2.266176 1.128244 3.031078" Properties=species:S:1:pos:R:3:frac_pos:R:3:dft_force:R:3 config_type=dia task=SinglePoint cut_off_energy="250 eV" spin_polarized=F opt_strategy_bias=3 xc_functional=PW91 elec_energy_tol=1e-07 max_scf_cycles=250 fix_occupancy=F calculate_stress=T finite_basis_corr=automatic smearing_width=0.05 fine_grid_scale=4 mixing_scheme=pulay mix_history_length=20 num_dump_cycles=0 popn_calculate=F mix_charge_amp=0.05 kpoints_mp_grid="12 12 11" castep_file_name=md_sample_dia.xyz-00408/eval.castep castep_run_time=75.89 dft_energy=-326.131924 dft_virial="0.67541033 0.19634157 -0.99167103 0.19634157 2.81635915 -0.40951259 -0.99167103 -0.40951259 2.75901312" in_file=md_sample_dia.xyz@408 cutoff_factor=1.2 cutoff=-1.0 nneightol=1.2 pbc="T T T"
Si       0.00000000       0.00000000       0.00000000       0.00000000       0.00000000       0.00000000      -0.57528000       0.53604000       0.16259000
Si       1.89292215       1.09288030       0.77278243       0.22063600       0.25074200       0.25495300       0.57528000      -0.53604000      -0.16259000
2
Lattice="3.712049 0.0 0.0 1.683761 3.175181 0.0 2.031825 1.1348 3.025875" Properties=species:S:1:pos:R:3:frac_pos:R:3:dft_force:R:3 config_type=dia task=SinglePoint cut_off_energy="250 eV" spin_polarized=F opt_strategy_bias=3 xc_functional=PW91 elec_energy_tol=1e-07 max_scf_cycles=250 fix_occupancy=F calculate_stress=T finite_basis_corr=automatic smearing_width=0.05 fine_grid_scale=4 mixing_scheme=pulay mix_history_length=20 num_dump_cycles=0 popn_calculate=F mix_charge_amp=0.05 kpoints_mp_grid="12 12 12" castep_file_name=md_sample_dia.xyz-00409/eval.castep castep_run_time=73.41 dft_energy=-326.067312 dft_virial="2.58239421 0.03287647 -0.97370075 0.03287647 4.15546125 -0.50529319 -0.97370075 -0.50529319 3.48090174" in_file=md_sample_dia.xyz@409 cutoff_factor=1.2 cutoff=-1.0 nneightol=1.2 pbc="T T T"
Si       0.00000000       0.00000000       0.00000000       0.00000000       0.00000000       0.00000000       0.50349000       0.54442000       0.11708000
Si       1.89292285       1.09287927       0.77278427       0.25542700       0.25291800       0.25539200      -0.50349000      -0.54442000      -0.11708000
2
Lattice="3.654335 0.0 0.0 1.740304 3.319861 0.0 1.736268 1.167443 3.160902" Properties=species:S:1:pos:R:3:frac_pos:R:3:dft_force:R:3 config_type=dia task=SinglePoint cut_off_energy="250 eV" spin_polarized=F opt_strategy_bias=3 xc_functional=PW91 elec_energy_tol=1e-07 max_scf_cycles=250 fix_occupancy=F calculate_stress=T finite_basis_corr=automatic smearing_width=0.05 fine_grid_scale=4 mixing_scheme=pulay mix_history_length=20 num_dump_cycles=0 popn_calculate=F mix_charge_amp=0.05 kpoints_mp_grid="11 11 11" castep_file_name=md_sample_dia.xyz-00410/eval.castep castep_run_time=63.55 dft_energy=-326.174643 dft_virial="3.52089446 -0.4501338 -0.33030335 -0.4501338 1.04909266 0.28963737 -0.33030335 0.28963737 0.11997813" in_file=md_sample_dia.xyz@410 cutoff_factor=1.2 cutoff=-1.0 nneightol=1.2 pbc="T T T"
Si       0.00000000       0.00000000       0.00000000       0.00000000       0.00000000       0.00000000       1.40627000      -0.88503000      -0.75670000
Si       1.89292283       1.09287871       0.77278364       0.28600500       0.24322100       0.24448200      -1.40627000       0.88503000       0.75670000
2
Lattice="3.870111 0.0 0.0 2.129257 3.33211 0.0 1.543751 1.232178 3.206279" Properties=species:S:1:pos:R:3:frac_pos:R:3:dft_force:R:3 config_type=dia task=SinglePoint cut_off_energy="250 eV" spin_polarized=F opt_strategy_bias=3 xc_functional=PW91 elec_energy_tol=1e-07 max_scf_cycles=250 fix_occupancy=F calculate_stress=T finite_basis_corr=automatic smearing_width=0.05 fine_grid_scale=4 mixing_scheme=pulay mix_history_length=20 num_dump_cycles=0 popn_calculate=F mix_charge_amp=0.05 kpoints_mp_grid="11 11 11" castep_file_name=md_sample_dia.xyz-00411/eval.castep castep_run_time=68.35 dft_energy=-326.17604 dft_virial="-0.24477623 -0.30340914 1.84754457 -0.30340914 0.12204902 -0.06810359 1.84754457 -0.06810359 -1.10305408" in_file=md_sample_dia.xyz@411 cutoff_factor=1.2 cutoff=-1.0 nneightol=1.2 pbc="T T T"
Si       0.00000000       0.00000000       0.00000000       0.00000000       0.00000000       0.00000000      -0.27661000      -0.41609000      -0.56588000
Si       1.89292439       1.09287980       0.77278378       0.26155800       0.23885700       0.24102200       0.27661000       0.41609000       0.56588000
2
Lattice="3.799633 0.0 0.0 1.765875 3.205408 0.0 1.601563 1.150309 3.123927" Properties=species:S:1:pos:R:3:frac_pos:R:3:dft_force:R:3 config_type=dia task=SinglePoint cut_off_energy="250 eV" spin_polarized=F opt_strategy_bias=3 xc_functional=PW91 elec_energy_tol=1e-07 max_scf_cycles=250 fix_occupancy=F calculate_stress=T finite_basis_corr=automatic smearing_width=0.05 fine_grid_scale=4 mixing_scheme=pulay mix_history_length=20 num_dump_cycles=0 popn_calculate=F mix_charge_amp=0.05 kpoints_mp_grid="11 12 11" castep_file_name=md_sample_dia.xyz-00412/eval.castep castep_run_time=72.3 dft_energy=-326.192207 dft_virial="1.01860111 0.58401284 0.93904123 0.58401284 2.93933346 -0.63608815 0.93904123 -0.63608815 0.78361675" in_file=md_sample_dia.xyz@412 cutoff_factor=1.2 cutoff=-1.0 nneightol=1.2 pbc="T T T"
Si       0.00000000       0.00000000       0.00000000       0.00000000       0.00000000       0.00000000       0.46240000       0.49058000      -0.51504000
Si       1.89292125       1.09287825       0.77278144       0.27671800       0.25217400       0.24737500      -0.46240000      -0.49058000       0.51504000
2
Lattice="3.768794 0.0 0.0 1.826215 3.253884 0.0 1.817171 1.07375 3.11605" Properties=species:S:1:pos:R:3:frac_pos:R:3:dft_force:R:3 config_type=dia task=SinglePoint cut_off_energy="250 eV" spin_polarized=F opt_strategy_bias=3 xc_functional=PW91 elec_energy_tol=1e-07 max_scf_cycles=250 fix_occupancy=F calculate_stress=T finite_basis_corr=automatic smearing_width=0.05 fine_grid_scale=4 mixing_scheme=pulay mix_history_length=20 num_dump_cycles=0 popn_calculate=F mix_charge_amp=0.05 kpoints_mp_grid="11 11 11" castep_file_name=md_sample_dia.xyz-00413/eval.castep castep_run_time=64.34 dft_energy=-326.29298 dft_virial="1.68049514 0.13275383 0.14285893 0.13275383 2.00182469 -0.03289206 0.14285893 -0.03289206 0.94226468" in_file=md_sample_dia.xyz@413 cutoff_factor=1.2 cutoff=-1.0 nneightol=1.2 pbc="T T T"
Si       0.00000000       0.00000000       0.00000000       0.00000000       0.00000000       0.00000000       0.31403000       0.16380000      -0.28072000
Si       1.89292605       1.09288173       0.77278352       0.25959200       0.25403200       0.24800100      -0.31403000      -0.16380000       0.28072000
2
Lattice="3.83206 0.0 0.0 2.041003 3.191111 0.0 1.921101 1.151514 3.122561" Properties=species:S:1:pos:R:3:frac_pos:R:3:dft_force:R:3 config_type=dia task=SinglePoint cut_off_energy="250 eV" spin_polarized=F opt_strategy_bias=3 xc_functional=PW91 elec_energy_tol=1e-07 max_scf_cycles=250 fix_occupancy=F calculate_stress=T finite_basis_corr=automatic smearing_width=0.05 fine_grid_scale=4 mixing_scheme=pulay mix_history_length=20 num_dump_cycles=0 popn_calculate=F mix_charge_amp=0.05 kpoints_mp_grid="11 12 11" castep_file_name=md_sample_dia.xyz-00414/eval.castep castep_run_time=72.35 dft_energy=-326.239 dft_virial="0.74915352 -0.22095503 0.23176399 -0.22095503 3.28012832 -0.89857264 0.23176399 -0.89857264 0.84562007" in_file=md_sample_dia.xyz@414 cutoff_factor=1.2 cutoff=-1.0 nneightol=1.2 pbc="T T T"
Si       0.00000000       0.00000000       0.00000000       0.00000000       0.00000000       0.00000000      -0.48383000       0.72513000      -0.39247000
Si       1.89292293       1.09288124       0.77278389       0.23505800       0.25317200       0.24748400       0.48383000      -0.72513000       0.39247000
2